ITEM: TIMESTEP
0
ITEM: NUMBER OF ATOMS
19680
ITEM: BOX BOUNDS pp pp pp
-50 50
-50 50
-0.614014 301.48
ITEM: ATOMS id type xu yu zu
 1 1 27.0841 0 0
 2 1 27.047 1.41747 0
 3 1 27.0006 2.125 1.22802
 4 1 26.8524 3.53519 1.22802
 5 1 26.7507 4.23689 0
 6 1 26.4923 5.63111 0
 7 1 26.3358 6.32266 1.22802
 8 1 25.9688 7.69231 1.22802
 9 1 25.7585 8.36946 0
 10 1 25.2852 9.70608 0
 11 1 25.0225 10.3646 1.22802
 12 1 24.4457 11.66 1.22802
 13 1 24.1321 12.2959 0
 14 1 23.4555 13.5421 0
 15 1 23.093 14.1514 1.22802
 16 1 22.3207 15.3406 1.22802
 17 1 21.9115 15.9196 0
 18 1 21.0483 17.0446 0
 19 1 20.5949 17.5897 1.22802
 20 1 19.6461 18.6435 1.22802
 21 1 19.1514 19.1514 0
 22 1 18.1228 20.1274 0
 23 1 17.5897 20.5949 1.22802
 24 1 16.4878 21.4873 1.22802
 25 1 15.9196 21.9115 0
 26 1 14.7511 22.7147 0
 27 1 14.1514 23.093 1.22802
 28 1 12.9234 23.802 1.22802
 29 1 12.2959 24.1321 0
 30 1 11.0161 24.7426 0
 31 1 10.3646 25.0225 1.22802
 32 1 9.04087 25.5306 1.22802
 33 1 8.36946 25.7585 0
 34 1 7.00989 26.1613 0
 35 1 6.32266 26.3358 1.22802
 36 1 4.93569 26.6306 1.22802
 37 1 4.23689 26.7507 0
 38 1 2.83106 26.9358 0
 39 1 2.125 27.0006 1.22802
 40 1 0.70898 27.0748 1.22802
 41 1 7.67225e-015 27.0841 0
 42 1 -1.41747 27.047 0
 43 1 -2.125 27.0006 1.22802
 44 1 -3.53519 26.8524 1.22802
 45 1 -4.23689 26.7507 0
 46 1 -5.63111 26.4923 0
 47 1 -6.32266 26.3358 1.22802
 48 1 -7.69231 25.9688 1.22802
 49 1 -8.36946 25.7585 0
 50 1 -9.70608 25.2852 0
 51 1 -10.3646 25.0225 1.22802
 52 1 -11.66 24.4457 1.22802
 53 1 -12.2959 24.1321 0
 54 1 -13.5421 23.4555 0
 55 1 -14.1514 23.093 1.22802
 56 1 -15.3406 22.3207 1.22802
 57 1 -15.9196 21.9115 0
 58 1 -17.0446 21.0483 0
 59 1 -17.5897 20.5949 1.22802
 60 1 -18.6435 19.6461 1.22802
 61 1 -19.1514 19.1514 0
 62 1 -20.1274 18.1228 0
 63 1 -20.5949 17.5897 1.22802
 64 1 -21.4873 16.4878 1.22802
 65 1 -21.9115 15.9196 0
 66 1 -22.7147 14.7511 0
 67 1 -23.093 14.1514 1.22802
 68 1 -23.802 12.9234 1.22802
 69 1 -24.1321 12.2959 0
 70 1 -24.7426 11.0161 0
 71 1 -25.0225 10.3646 1.22802
 72 1 -25.5306 9.04087 1.22802
 73 1 -25.7585 8.36946 0
 74 1 -26.1613 7.00989 0
 75 1 -26.3358 6.32266 1.22802
 76 1 -26.6306 4.93569 1.22802
 77 1 -26.7507 4.23689 0
 78 1 -26.9358 2.83106 0
 79 1 -27.0006 2.125 1.22802
 80 1 -27.0748 0.70898 1.22802
 81 1 -27.0841 1.53445e-014 0
 82 1 -27.047 -1.41747 0
 83 1 -27.0006 -2.125 1.22802
 84 1 -26.8524 -3.53519 1.22802
 85 1 -26.7507 -4.23689 0
 86 1 -26.4923 -5.63111 0
 87 1 -26.3358 -6.32266 1.22802
 88 1 -25.9688 -7.69231 1.22802
 89 1 -25.7585 -8.36946 0
 90 1 -25.2852 -9.70608 0
 91 1 -25.0225 -10.3646 1.22802
 92 1 -24.4457 -11.66 1.22802
 93 1 -24.1321 -12.2959 0
 94 1 -23.4555 -13.5421 0
 95 1 -23.093 -14.1514 1.22802
 96 1 -22.3207 -15.3406 1.22802
 97 1 -21.9115 -15.9196 0
 98 1 -21.0483 -17.0446 0
 99 1 -20.5949 -17.5897 1.22802
 100 1 -19.6461 -18.6435 1.22802
 101 1 -19.1514 -19.1514 0
 102 1 -18.1228 -20.1274 0
 103 1 -17.5897 -20.5949 1.22802
 104 1 -16.4878 -21.4873 1.22802
 105 1 -15.9196 -21.9115 0
 106 1 -14.7511 -22.7147 0
 107 1 -14.1514 -23.093 1.22802
 108 1 -12.9234 -23.802 1.22802
 109 1 -12.2959 -24.1321 0
 110 1 -11.0161 -24.7426 0
 111 1 -10.3646 -25.0225 1.22802
 112 1 -9.04087 -25.5306 1.22802
 113 1 -8.36946 -25.7585 0
 114 1 -7.00989 -26.1613 0
 115 1 -6.32266 -26.3358 1.22802
 116 1 -4.93569 -26.6306 1.22802
 117 1 -4.23689 -26.7507 0
 118 1 -2.83106 -26.9358 0
 119 1 -2.125 -27.0006 1.22802
 120 1 -0.70898 -27.0748 1.22802
 121 1 -2.90306e-014 -27.0841 0
 122 1 1.41747 -27.047 0
 123 1 2.125 -27.0006 1.22802
 124 1 3.53519 -26.8524 1.22802
 125 1 4.23689 -26.7507 0
 126 1 5.63111 -26.4923 0
 127 1 6.32266 -26.3358 1.22802
 128 1 7.69231 -25.9688 1.22802
 129 1 8.36946 -25.7585 0
 130 1 9.70608 -25.2852 0
 131 1 10.3646 -25.0225 1.22802
 132 1 11.66 -24.4457 1.22802
 133 1 12.2959 -24.1321 0
 134 1 13.5421 -23.4555 0
 135 1 14.1514 -23.093 1.22802
 136 1 15.3406 -22.3207 1.22802
 137 1 15.9196 -21.9115 0
 138 1 17.0446 -21.0483 0
 139 1 17.5897 -20.5949 1.22802
 140 1 18.6435 -19.6461 1.22802
 141 1 19.1514 -19.1514 0
 142 1 20.1274 -18.1228 0
 143 1 20.5949 -17.5897 1.22802
 144 1 21.4873 -16.4878 1.22802
 145 1 21.9115 -15.9196 0
 146 1 22.7147 -14.7511 0
 147 1 23.093 -14.1514 1.22802
 148 1 23.802 -12.9234 1.22802
 149 1 24.1321 -12.2959 0
 150 1 24.7426 -11.0161 0
 151 1 25.0225 -10.3646 1.22802
 152 1 25.5306 -9.04087 1.22802
 153 1 25.7585 -8.36946 0
 154 1 26.1613 -7.00989 0
 155 1 26.3358 -6.32266 1.22802
 156 1 26.6306 -4.93569 1.22802
 157 1 26.7507 -4.23689 0
 158 1 26.9358 -2.83106 0
 159 1 27.0006 -2.125 1.22802
 160 1 27.0748 -0.70898 1.22802
 161 1 27.0841 0 2.45605
 162 1 27.047 1.41747 2.45605
 163 1 27.0006 2.125 3.68407
 164 1 26.8524 3.53519 3.68407
 165 1 26.7507 4.23689 2.45605
 166 1 26.4923 5.63111 2.45605
 167 1 26.3358 6.32266 3.68407
 168 1 25.9688 7.69231 3.68407
 169 1 25.7585 8.36946 2.45605
 170 1 25.2852 9.70608 2.45605
 171 1 25.0225 10.3646 3.68407
 172 1 24.4457 11.66 3.68407
 173 1 24.1321 12.2959 2.45605
 174 1 23.4555 13.5421 2.45605
 175 1 23.093 14.1514 3.68407
 176 1 22.3207 15.3406 3.68407
 177 1 21.9115 15.9196 2.45605
 178 1 21.0483 17.0446 2.45605
 179 1 20.5949 17.5897 3.68407
 180 1 19.6461 18.6435 3.68407
 181 1 19.1514 19.1514 2.45605
 182 1 18.1228 20.1274 2.45605
 183 1 17.5897 20.5949 3.68407
 184 1 16.4878 21.4873 3.68407
 185 1 15.9196 21.9115 2.45605
 186 1 14.7511 22.7147 2.45605
 187 1 14.1514 23.093 3.68407
 188 1 12.9234 23.802 3.68407
 189 1 12.2959 24.1321 2.45605
 190 1 11.0161 24.7426 2.45605
 191 1 10.3646 25.0225 3.68407
 192 1 9.04087 25.5306 3.68407
 193 1 8.36946 25.7585 2.45605
 194 1 7.00989 26.1613 2.45605
 195 1 6.32266 26.3358 3.68407
 196 1 4.93569 26.6306 3.68407
 197 1 4.23689 26.7507 2.45605
 198 1 2.83106 26.9358 2.45605
 199 1 2.125 27.0006 3.68407
 200 1 0.70898 27.0748 3.68407
 201 1 7.67225e-015 27.0841 2.45605
 202 1 -1.41747 27.047 2.45605
 203 1 -2.125 27.0006 3.68407
 204 1 -3.53519 26.8524 3.68407
 205 1 -4.23689 26.7507 2.45605
 206 1 -5.63111 26.4923 2.45605
 207 1 -6.32266 26.3358 3.68407
 208 1 -7.69231 25.9688 3.68407
 209 1 -8.36946 25.7585 2.45605
 210 1 -9.70608 25.2852 2.45605
 211 1 -10.3646 25.0225 3.68407
 212 1 -11.66 24.4457 3.68407
 213 1 -12.2959 24.1321 2.45605
 214 1 -13.5421 23.4555 2.45605
 215 1 -14.1514 23.093 3.68407
 216 1 -15.3406 22.3207 3.68407
 217 1 -15.9196 21.9115 2.45605
 218 1 -17.0446 21.0483 2.45605
 219 1 -17.5897 20.5949 3.68407
 220 1 -18.6435 19.6461 3.68407
 221 1 -19.1514 19.1514 2.45605
 222 1 -20.1274 18.1228 2.45605
 223 1 -20.5949 17.5897 3.68407
 224 1 -21.4873 16.4878 3.68407
 225 1 -21.9115 15.9196 2.45605
 226 1 -22.7147 14.7511 2.45605
 227 1 -23.093 14.1514 3.68407
 228 1 -23.802 12.9234 3.68407
 229 1 -24.1321 12.2959 2.45605
 230 1 -24.7426 11.0161 2.45605
 231 1 -25.0225 10.3646 3.68407
 232 1 -25.5306 9.04087 3.68407
 233 1 -25.7585 8.36946 2.45605
 234 1 -26.1613 7.00989 2.45605
 235 1 -26.3358 6.32266 3.68407
 236 1 -26.6306 4.93569 3.68407
 237 1 -26.7507 4.23689 2.45605
 238 1 -26.9358 2.83106 2.45605
 239 1 -27.0006 2.125 3.68407
 240 1 -27.0748 0.70898 3.68407
 241 1 -27.0841 1.53445e-014 2.45605
 242 1 -27.047 -1.41747 2.45605
 243 1 -27.0006 -2.125 3.68407
 244 1 -26.8524 -3.53519 3.68407
 245 1 -26.7507 -4.23689 2.45605
 246 1 -26.4923 -5.63111 2.45605
 247 1 -26.3358 -6.32266 3.68407
 248 1 -25.9688 -7.69231 3.68407
 249 1 -25.7585 -8.36946 2.45605
 250 1 -25.2852 -9.70608 2.45605
 251 1 -25.0225 -10.3646 3.68407
 252 1 -24.4457 -11.66 3.68407
 253 1 -24.1321 -12.2959 2.45605
 254 1 -23.4555 -13.5421 2.45605
 255 1 -23.093 -14.1514 3.68407
 256 1 -22.3207 -15.3406 3.68407
 257 1 -21.9115 -15.9196 2.45605
 258 1 -21.0483 -17.0446 2.45605
 259 1 -20.5949 -17.5897 3.68407
 260 1 -19.6461 -18.6435 3.68407
 261 1 -19.1514 -19.1514 2.45605
 262 1 -18.1228 -20.1274 2.45605
 263 1 -17.5897 -20.5949 3.68407
 264 1 -16.4878 -21.4873 3.68407
 265 1 -15.9196 -21.9115 2.45605
 266 1 -14.7511 -22.7147 2.45605
 267 1 -14.1514 -23.093 3.68407
 268 1 -12.9234 -23.802 3.68407
 269 1 -12.2959 -24.1321 2.45605
 270 1 -11.0161 -24.7426 2.45605
 271 1 -10.3646 -25.0225 3.68407
 272 1 -9.04087 -25.5306 3.68407
 273 1 -8.36946 -25.7585 2.45605
 274 1 -7.00989 -26.1613 2.45605
 275 1 -6.32266 -26.3358 3.68407
 276 1 -4.93569 -26.6306 3.68407
 277 1 -4.23689 -26.7507 2.45605
 278 1 -2.83106 -26.9358 2.45605
 279 1 -2.125 -27.0006 3.68407
 280 1 -0.70898 -27.0748 3.68407
 281 1 -2.90306e-014 -27.0841 2.45605
 282 1 1.41747 -27.047 2.45605
 283 1 2.125 -27.0006 3.68407
 284 1 3.53519 -26.8524 3.68407
 285 1 4.23689 -26.7507 2.45605
 286 1 5.63111 -26.4923 2.45605
 287 1 6.32266 -26.3358 3.68407
 288 1 7.69231 -25.9688 3.68407
 289 1 8.36946 -25.7585 2.45605
 290 1 9.70608 -25.2852 2.45605
 291 1 10.3646 -25.0225 3.68407
 292 1 11.66 -24.4457 3.68407
 293 1 12.2959 -24.1321 2.45605
 294 1 13.5421 -23.4555 2.45605
 295 1 14.1514 -23.093 3.68407
 296 1 15.3406 -22.3207 3.68407
 297 1 15.9196 -21.9115 2.45605
 298 1 17.0446 -21.0483 2.45605
 299 1 17.5897 -20.5949 3.68407
 300 1 18.6435 -19.6461 3.68407
 301 1 19.1514 -19.1514 2.45605
 302 1 20.1274 -18.1228 2.45605
 303 1 20.5949 -17.5897 3.68407
 304 1 21.4873 -16.4878 3.68407
 305 1 21.9115 -15.9196 2.45605
 306 1 22.7147 -14.7511 2.45605
 307 1 23.093 -14.1514 3.68407
 308 1 23.802 -12.9234 3.68407
 309 1 24.1321 -12.2959 2.45605
 310 1 24.7426 -11.0161 2.45605
 311 1 25.0225 -10.3646 3.68407
 312 1 25.5306 -9.04087 3.68407
 313 1 25.7585 -8.36946 2.45605
 314 1 26.1613 -7.00989 2.45605
 315 1 26.3358 -6.32266 3.68407
 316 1 26.6306 -4.93569 3.68407
 317 1 26.7507 -4.23689 2.45605
 318 1 26.9358 -2.83106 2.45605
 319 1 27.0006 -2.125 3.68407
 320 1 27.0748 -0.70898 3.68407
 321 1 27.0841 0 4.9121
 322 1 27.047 1.41747 4.9121
 323 1 27.0006 2.125 6.14012
 324 1 26.8524 3.53519 6.14012
 325 1 26.7507 4.23689 4.9121
 326 1 26.4923 5.63111 4.9121
 327 1 26.3358 6.32266 6.14012
 328 1 25.9688 7.69231 6.14012
 329 1 25.7585 8.36946 4.9121
 330 1 25.2852 9.70608 4.9121
 331 1 25.0225 10.3646 6.14012
 332 1 24.4457 11.66 6.14012
 333 1 24.1321 12.2959 4.9121
 334 1 23.4555 13.5421 4.9121
 335 1 23.093 14.1514 6.14012
 336 1 22.3207 15.3406 6.14012
 337 1 21.9115 15.9196 4.9121
 338 1 21.0483 17.0446 4.9121
 339 1 20.5949 17.5897 6.14012
 340 1 19.6461 18.6435 6.14012
 341 1 19.1514 19.1514 4.9121
 342 1 18.1228 20.1274 4.9121
 343 1 17.5897 20.5949 6.14012
 344 1 16.4878 21.4873 6.14012
 345 1 15.9196 21.9115 4.9121
 346 1 14.7511 22.7147 4.9121
 347 1 14.1514 23.093 6.14012
 348 1 12.9234 23.802 6.14012
 349 1 12.2959 24.1321 4.9121
 350 1 11.0161 24.7426 4.9121
 351 1 10.3646 25.0225 6.14012
 352 1 9.04087 25.5306 6.14012
 353 1 8.36946 25.7585 4.9121
 354 1 7.00989 26.1613 4.9121
 355 1 6.32266 26.3358 6.14012
 356 1 4.93569 26.6306 6.14012
 357 1 4.23689 26.7507 4.9121
 358 1 2.83106 26.9358 4.9121
 359 1 2.125 27.0006 6.14012
 360 1 0.70898 27.0748 6.14012
 361 1 7.67225e-015 27.0841 4.9121
 362 1 -1.41747 27.047 4.9121
 363 1 -2.125 27.0006 6.14012
 364 1 -3.53519 26.8524 6.14012
 365 1 -4.23689 26.7507 4.9121
 366 1 -5.63111 26.4923 4.9121
 367 1 -6.32266 26.3358 6.14012
 368 1 -7.69231 25.9688 6.14012
 369 1 -8.36946 25.7585 4.9121
 370 1 -9.70608 25.2852 4.9121
 371 1 -10.3646 25.0225 6.14012
 372 1 -11.66 24.4457 6.14012
 373 1 -12.2959 24.1321 4.9121
 374 1 -13.5421 23.4555 4.9121
 375 1 -14.1514 23.093 6.14012
 376 1 -15.3406 22.3207 6.14012
 377 1 -15.9196 21.9115 4.9121
 378 1 -17.0446 21.0483 4.9121
 379 1 -17.5897 20.5949 6.14012
 380 1 -18.6435 19.6461 6.14012
 381 1 -19.1514 19.1514 4.9121
 382 1 -20.1274 18.1228 4.9121
 383 1 -20.5949 17.5897 6.14012
 384 1 -21.4873 16.4878 6.14012
 385 1 -21.9115 15.9196 4.9121
 386 1 -22.7147 14.7511 4.9121
 387 1 -23.093 14.1514 6.14012
 388 1 -23.802 12.9234 6.14012
 389 1 -24.1321 12.2959 4.9121
 390 1 -24.7426 11.0161 4.9121
 391 1 -25.0225 10.3646 6.14012
 392 1 -25.5306 9.04087 6.14012
 393 1 -25.7585 8.36946 4.9121
 394 1 -26.1613 7.00989 4.9121
 395 1 -26.3358 6.32266 6.14012
 396 1 -26.6306 4.93569 6.14012
 397 1 -26.7507 4.23689 4.9121
 398 1 -26.9358 2.83106 4.9121
 399 1 -27.0006 2.125 6.14012
 400 1 -27.0748 0.70898 6.14012
 401 1 -27.0841 1.53445e-014 4.9121
 402 1 -27.047 -1.41747 4.9121
 403 1 -27.0006 -2.125 6.14012
 404 1 -26.8524 -3.53519 6.14012
 405 1 -26.7507 -4.23689 4.9121
 406 1 -26.4923 -5.63111 4.9121
 407 1 -26.3358 -6.32266 6.14012
 408 1 -25.9688 -7.69231 6.14012
 409 1 -25.7585 -8.36946 4.9121
 410 1 -25.2852 -9.70608 4.9121
 411 1 -25.0225 -10.3646 6.14012
 412 1 -24.4457 -11.66 6.14012
 413 1 -24.1321 -12.2959 4.9121
 414 1 -23.4555 -13.5421 4.9121
 415 1 -23.093 -14.1514 6.14012
 416 1 -22.3207 -15.3406 6.14012
 417 1 -21.9115 -15.9196 4.9121
 418 1 -21.0483 -17.0446 4.9121
 419 1 -20.5949 -17.5897 6.14012
 420 1 -19.6461 -18.6435 6.14012
 421 1 -19.1514 -19.1514 4.9121
 422 1 -18.1228 -20.1274 4.9121
 423 1 -17.5897 -20.5949 6.14012
 424 1 -16.4878 -21.4873 6.14012
 425 1 -15.9196 -21.9115 4.9121
 426 1 -14.7511 -22.7147 4.9121
 427 1 -14.1514 -23.093 6.14012
 428 1 -12.9234 -23.802 6.14012
 429 1 -12.2959 -24.1321 4.9121
 430 1 -11.0161 -24.7426 4.9121
 431 1 -10.3646 -25.0225 6.14012
 432 1 -9.04087 -25.5306 6.14012
 433 1 -8.36946 -25.7585 4.9121
 434 1 -7.00989 -26.1613 4.9121
 435 1 -6.32266 -26.3358 6.14012
 436 1 -4.93569 -26.6306 6.14012
 437 1 -4.23689 -26.7507 4.9121
 438 1 -2.83106 -26.9358 4.9121
 439 1 -2.125 -27.0006 6.14012
 440 1 -0.70898 -27.0748 6.14012
 441 1 -2.90306e-014 -27.0841 4.9121
 442 1 1.41747 -27.047 4.9121
 443 1 2.125 -27.0006 6.14012
 444 1 3.53519 -26.8524 6.14012
 445 1 4.23689 -26.7507 4.9121
 446 1 5.63111 -26.4923 4.9121
 447 1 6.32266 -26.3358 6.14012
 448 1 7.69231 -25.9688 6.14012
 449 1 8.36946 -25.7585 4.9121
 450 1 9.70608 -25.2852 4.9121
 451 1 10.3646 -25.0225 6.14012
 452 1 11.66 -24.4457 6.14012
 453 1 12.2959 -24.1321 4.9121
 454 1 13.5421 -23.4555 4.9121
 455 1 14.1514 -23.093 6.14012
 456 1 15.3406 -22.3207 6.14012
 457 1 15.9196 -21.9115 4.9121
 458 1 17.0446 -21.0483 4.9121
 459 1 17.5897 -20.5949 6.14012
 460 1 18.6435 -19.6461 6.14012
 461 1 19.1514 -19.1514 4.9121
 462 1 20.1274 -18.1228 4.9121
 463 1 20.5949 -17.5897 6.14012
 464 1 21.4873 -16.4878 6.14012
 465 1 21.9115 -15.9196 4.9121
 466 1 22.7147 -14.7511 4.9121
 467 1 23.093 -14.1514 6.14012
 468 1 23.802 -12.9234 6.14012
 469 1 24.1321 -12.2959 4.9121
 470 1 24.7426 -11.0161 4.9121
 471 1 25.0225 -10.3646 6.14012
 472 1 25.5306 -9.04087 6.14012
 473 1 25.7585 -8.36946 4.9121
 474 1 26.1613 -7.00989 4.9121
 475 1 26.3358 -6.32266 6.14012
 476 1 26.6306 -4.93569 6.14012
 477 1 26.7507 -4.23689 4.9121
 478 1 26.9358 -2.83106 4.9121
 479 1 27.0006 -2.125 6.14012
 480 1 27.0748 -0.70898 6.14012
 481 1 27.0841 0 7.36814
 482 1 27.047 1.41747 7.36814
 483 1 27.0006 2.125 8.59617
 484 1 26.8524 3.53519 8.59617
 485 1 26.7507 4.23689 7.36814
 486 1 26.4923 5.63111 7.36814
 487 1 26.3358 6.32266 8.59617
 488 1 25.9688 7.69231 8.59617
 489 1 25.7585 8.36946 7.36814
 490 1 25.2852 9.70608 7.36814
 491 1 25.0225 10.3646 8.59617
 492 1 24.4457 11.66 8.59617
 493 1 24.1321 12.2959 7.36814
 494 1 23.4555 13.5421 7.36814
 495 1 23.093 14.1514 8.59617
 496 1 22.3207 15.3406 8.59617
 497 1 21.9115 15.9196 7.36814
 498 1 21.0483 17.0446 7.36814
 499 1 20.5949 17.5897 8.59617
 500 1 19.6461 18.6435 8.59617
 501 1 19.1514 19.1514 7.36814
 502 1 18.1228 20.1274 7.36814
 503 1 17.5897 20.5949 8.59617
 504 1 16.4878 21.4873 8.59617
 505 1 15.9196 21.9115 7.36814
 506 1 14.7511 22.7147 7.36814
 507 1 14.1514 23.093 8.59617
 508 1 12.9234 23.802 8.59617
 509 1 12.2959 24.1321 7.36814
 510 1 11.0161 24.7426 7.36814
 511 1 10.3646 25.0225 8.59617
 512 1 9.04087 25.5306 8.59617
 513 1 8.36946 25.7585 7.36814
 514 1 7.00989 26.1613 7.36814
 515 1 6.32266 26.3358 8.59617
 516 1 4.93569 26.6306 8.59617
 517 1 4.23689 26.7507 7.36814
 518 1 2.83106 26.9358 7.36814
 519 1 2.125 27.0006 8.59617
 520 1 0.70898 27.0748 8.59617
 521 1 7.67225e-015 27.0841 7.36814
 522 1 -1.41747 27.047 7.36814
 523 1 -2.125 27.0006 8.59617
 524 1 -3.53519 26.8524 8.59617
 525 1 -4.23689 26.7507 7.36814
 526 1 -5.63111 26.4923 7.36814
 527 1 -6.32266 26.3358 8.59617
 528 1 -7.69231 25.9688 8.59617
 529 1 -8.36946 25.7585 7.36814
 530 1 -9.70608 25.2852 7.36814
 531 1 -10.3646 25.0225 8.59617
 532 1 -11.66 24.4457 8.59617
 533 1 -12.2959 24.1321 7.36814
 534 1 -13.5421 23.4555 7.36814
 535 1 -14.1514 23.093 8.59617
 536 1 -15.3406 22.3207 8.59617
 537 1 -15.9196 21.9115 7.36814
 538 1 -17.0446 21.0483 7.36814
 539 1 -17.5897 20.5949 8.59617
 540 1 -18.6435 19.6461 8.59617
 541 1 -19.1514 19.1514 7.36814
 542 1 -20.1274 18.1228 7.36814
 543 1 -20.5949 17.5897 8.59617
 544 1 -21.4873 16.4878 8.59617
 545 1 -21.9115 15.9196 7.36814
 546 1 -22.7147 14.7511 7.36814
 547 1 -23.093 14.1514 8.59617
 548 1 -23.802 12.9234 8.59617
 549 1 -24.1321 12.2959 7.36814
 550 1 -24.7426 11.0161 7.36814
 551 1 -25.0225 10.3646 8.59617
 552 1 -25.5306 9.04087 8.59617
 553 1 -25.7585 8.36946 7.36814
 554 1 -26.1613 7.00989 7.36814
 555 1 -26.3358 6.32266 8.59617
 556 1 -26.6306 4.93569 8.59617
 557 1 -26.7507 4.23689 7.36814
 558 1 -26.9358 2.83106 7.36814
 559 1 -27.0006 2.125 8.59617
 560 1 -27.0748 0.70898 8.59617
 561 1 -27.0841 1.53445e-014 7.36814
 562 1 -27.047 -1.41747 7.36814
 563 1 -27.0006 -2.125 8.59617
 564 1 -26.8524 -3.53519 8.59617
 565 1 -26.7507 -4.23689 7.36814
 566 1 -26.4923 -5.63111 7.36814
 567 1 -26.3358 -6.32266 8.59617
 568 1 -25.9688 -7.69231 8.59617
 569 1 -25.7585 -8.36946 7.36814
 570 1 -25.2852 -9.70608 7.36814
 571 1 -25.0225 -10.3646 8.59617
 572 1 -24.4457 -11.66 8.59617
 573 1 -24.1321 -12.2959 7.36814
 574 1 -23.4555 -13.5421 7.36814
 575 1 -23.093 -14.1514 8.59617
 576 1 -22.3207 -15.3406 8.59617
 577 1 -21.9115 -15.9196 7.36814
 578 1 -21.0483 -17.0446 7.36814
 579 1 -20.5949 -17.5897 8.59617
 580 1 -19.6461 -18.6435 8.59617
 581 1 -19.1514 -19.1514 7.36814
 582 1 -18.1228 -20.1274 7.36814
 583 1 -17.5897 -20.5949 8.59617
 584 1 -16.4878 -21.4873 8.59617
 585 1 -15.9196 -21.9115 7.36814
 586 1 -14.7511 -22.7147 7.36814
 587 1 -14.1514 -23.093 8.59617
 588 1 -12.9234 -23.802 8.59617
 589 1 -12.2959 -24.1321 7.36814
 590 1 -11.0161 -24.7426 7.36814
 591 1 -10.3646 -25.0225 8.59617
 592 1 -9.04087 -25.5306 8.59617
 593 1 -8.36946 -25.7585 7.36814
 594 1 -7.00989 -26.1613 7.36814
 595 1 -6.32266 -26.3358 8.59617
 596 1 -4.93569 -26.6306 8.59617
 597 1 -4.23689 -26.7507 7.36814
 598 1 -2.83106 -26.9358 7.36814
 599 1 -2.125 -27.0006 8.59617
 600 1 -0.70898 -27.0748 8.59617
 601 1 -2.90306e-014 -27.0841 7.36814
 602 1 1.41747 -27.047 7.36814
 603 1 2.125 -27.0006 8.59617
 604 1 3.53519 -26.8524 8.59617
 605 1 4.23689 -26.7507 7.36814
 606 1 5.63111 -26.4923 7.36814
 607 1 6.32266 -26.3358 8.59617
 608 1 7.69231 -25.9688 8.59617
 609 1 8.36946 -25.7585 7.36814
 610 1 9.70608 -25.2852 7.36814
 611 1 10.3646 -25.0225 8.59617
 612 1 11.66 -24.4457 8.59617
 613 1 12.2959 -24.1321 7.36814
 614 1 13.5421 -23.4555 7.36814
 615 1 14.1514 -23.093 8.59617
 616 1 15.3406 -22.3207 8.59617
 617 1 15.9196 -21.9115 7.36814
 618 1 17.0446 -21.0483 7.36814
 619 1 17.5897 -20.5949 8.59617
 620 1 18.6435 -19.6461 8.59617
 621 1 19.1514 -19.1514 7.36814
 622 1 20.1274 -18.1228 7.36814
 623 1 20.5949 -17.5897 8.59617
 624 1 21.4873 -16.4878 8.59617
 625 1 21.9115 -15.9196 7.36814
 626 1 22.7147 -14.7511 7.36814
 627 1 23.093 -14.1514 8.59617
 628 1 23.802 -12.9234 8.59617
 629 1 24.1321 -12.2959 7.36814
 630 1 24.7426 -11.0161 7.36814
 631 1 25.0225 -10.3646 8.59617
 632 1 25.5306 -9.04087 8.59617
 633 1 25.7585 -8.36946 7.36814
 634 1 26.1613 -7.00989 7.36814
 635 1 26.3358 -6.32266 8.59617
 636 1 26.6306 -4.93569 8.59617
 637 1 26.7507 -4.23689 7.36814
 638 1 26.9358 -2.83106 7.36814
 639 1 27.0006 -2.125 8.59617
 640 1 27.0748 -0.70898 8.59617
 641 1 27.0841 0 9.82419
 642 1 27.047 1.41747 9.82419
 643 1 27.0006 2.125 11.0522
 644 1 26.8524 3.53519 11.0522
 645 1 26.7507 4.23689 9.82419
 646 1 26.4923 5.63111 9.82419
 647 1 26.3358 6.32266 11.0522
 648 1 25.9688 7.69231 11.0522
 649 1 25.7585 8.36946 9.82419
 650 1 25.2852 9.70608 9.82419
 651 1 25.0225 10.3646 11.0522
 652 1 24.4457 11.66 11.0522
 653 1 24.1321 12.2959 9.82419
 654 1 23.4555 13.5421 9.82419
 655 1 23.093 14.1514 11.0522
 656 1 22.3207 15.3406 11.0522
 657 1 21.9115 15.9196 9.82419
 658 1 21.0483 17.0446 9.82419
 659 1 20.5949 17.5897 11.0522
 660 1 19.6461 18.6435 11.0522
 661 1 19.1514 19.1514 9.82419
 662 1 18.1228 20.1274 9.82419
 663 1 17.5897 20.5949 11.0522
 664 1 16.4878 21.4873 11.0522
 665 1 15.9196 21.9115 9.82419
 666 1 14.7511 22.7147 9.82419
 667 1 14.1514 23.093 11.0522
 668 1 12.9234 23.802 11.0522
 669 1 12.2959 24.1321 9.82419
 670 1 11.0161 24.7426 9.82419
 671 1 10.3646 25.0225 11.0522
 672 1 9.04087 25.5306 11.0522
 673 1 8.36946 25.7585 9.82419
 674 1 7.00989 26.1613 9.82419
 675 1 6.32266 26.3358 11.0522
 676 1 4.93569 26.6306 11.0522
 677 1 4.23689 26.7507 9.82419
 678 1 2.83106 26.9358 9.82419
 679 1 2.125 27.0006 11.0522
 680 1 0.70898 27.0748 11.0522
 681 1 7.67225e-015 27.0841 9.82419
 682 1 -1.41747 27.047 9.82419
 683 1 -2.125 27.0006 11.0522
 684 1 -3.53519 26.8524 11.0522
 685 1 -4.23689 26.7507 9.82419
 686 1 -5.63111 26.4923 9.82419
 687 1 -6.32266 26.3358 11.0522
 688 1 -7.69231 25.9688 11.0522
 689 1 -8.36946 25.7585 9.82419
 690 1 -9.70608 25.2852 9.82419
 691 1 -10.3646 25.0225 11.0522
 692 1 -11.66 24.4457 11.0522
 693 1 -12.2959 24.1321 9.82419
 694 1 -13.5421 23.4555 9.82419
 695 1 -14.1514 23.093 11.0522
 696 1 -15.3406 22.3207 11.0522
 697 1 -15.9196 21.9115 9.82419
 698 1 -17.0446 21.0483 9.82419
 699 1 -17.5897 20.5949 11.0522
 700 1 -18.6435 19.6461 11.0522
 701 1 -19.1514 19.1514 9.82419
 702 1 -20.1274 18.1228 9.82419
 703 1 -20.5949 17.5897 11.0522
 704 1 -21.4873 16.4878 11.0522
 705 1 -21.9115 15.9196 9.82419
 706 1 -22.7147 14.7511 9.82419
 707 1 -23.093 14.1514 11.0522
 708 1 -23.802 12.9234 11.0522
 709 1 -24.1321 12.2959 9.82419
 710 1 -24.7426 11.0161 9.82419
 711 1 -25.0225 10.3646 11.0522
 712 1 -25.5306 9.04087 11.0522
 713 1 -25.7585 8.36946 9.82419
 714 1 -26.1613 7.00989 9.82419
 715 1 -26.3358 6.32266 11.0522
 716 1 -26.6306 4.93569 11.0522
 717 1 -26.7507 4.23689 9.82419
 718 1 -26.9358 2.83106 9.82419
 719 1 -27.0006 2.125 11.0522
 720 1 -27.0748 0.70898 11.0522
 721 1 -27.0841 1.53445e-014 9.82419
 722 1 -27.047 -1.41747 9.82419
 723 1 -27.0006 -2.125 11.0522
 724 1 -26.8524 -3.53519 11.0522
 725 1 -26.7507 -4.23689 9.82419
 726 1 -26.4923 -5.63111 9.82419
 727 1 -26.3358 -6.32266 11.0522
 728 1 -25.9688 -7.69231 11.0522
 729 1 -25.7585 -8.36946 9.82419
 730 1 -25.2852 -9.70608 9.82419
 731 1 -25.0225 -10.3646 11.0522
 732 1 -24.4457 -11.66 11.0522
 733 1 -24.1321 -12.2959 9.82419
 734 1 -23.4555 -13.5421 9.82419
 735 1 -23.093 -14.1514 11.0522
 736 1 -22.3207 -15.3406 11.0522
 737 1 -21.9115 -15.9196 9.82419
 738 1 -21.0483 -17.0446 9.82419
 739 1 -20.5949 -17.5897 11.0522
 740 1 -19.6461 -18.6435 11.0522
 741 1 -19.1514 -19.1514 9.82419
 742 1 -18.1228 -20.1274 9.82419
 743 1 -17.5897 -20.5949 11.0522
 744 1 -16.4878 -21.4873 11.0522
 745 1 -15.9196 -21.9115 9.82419
 746 1 -14.7511 -22.7147 9.82419
 747 1 -14.1514 -23.093 11.0522
 748 1 -12.9234 -23.802 11.0522
 749 1 -12.2959 -24.1321 9.82419
 750 1 -11.0161 -24.7426 9.82419
 751 1 -10.3646 -25.0225 11.0522
 752 1 -9.04087 -25.5306 11.0522
 753 1 -8.36946 -25.7585 9.82419
 754 1 -7.00989 -26.1613 9.82419
 755 1 -6.32266 -26.3358 11.0522
 756 1 -4.93569 -26.6306 11.0522
 757 1 -4.23689 -26.7507 9.82419
 758 1 -2.83106 -26.9358 9.82419
 759 1 -2.125 -27.0006 11.0522
 760 1 -0.70898 -27.0748 11.0522
 761 1 -2.90306e-014 -27.0841 9.82419
 762 1 1.41747 -27.047 9.82419
 763 1 2.125 -27.0006 11.0522
 764 1 3.53519 -26.8524 11.0522
 765 1 4.23689 -26.7507 9.82419
 766 1 5.63111 -26.4923 9.82419
 767 1 6.32266 -26.3358 11.0522
 768 1 7.69231 -25.9688 11.0522
 769 1 8.36946 -25.7585 9.82419
 770 1 9.70608 -25.2852 9.82419
 771 1 10.3646 -25.0225 11.0522
 772 1 11.66 -24.4457 11.0522
 773 1 12.2959 -24.1321 9.82419
 774 1 13.5421 -23.4555 9.82419
 775 1 14.1514 -23.093 11.0522
 776 1 15.3406 -22.3207 11.0522
 777 1 15.9196 -21.9115 9.82419
 778 1 17.0446 -21.0483 9.82419
 779 1 17.5897 -20.5949 11.0522
 780 1 18.6435 -19.6461 11.0522
 781 1 19.1514 -19.1514 9.82419
 782 1 20.1274 -18.1228 9.82419
 783 1 20.5949 -17.5897 11.0522
 784 1 21.4873 -16.4878 11.0522
 785 1 21.9115 -15.9196 9.82419
 786 1 22.7147 -14.7511 9.82419
 787 1 23.093 -14.1514 11.0522
 788 1 23.802 -12.9234 11.0522
 789 1 24.1321 -12.2959 9.82419
 790 1 24.7426 -11.0161 9.82419
 791 1 25.0225 -10.3646 11.0522
 792 1 25.5306 -9.04087 11.0522
 793 1 25.7585 -8.36946 9.82419
 794 1 26.1613 -7.00989 9.82419
 795 1 26.3358 -6.32266 11.0522
 796 1 26.6306 -4.93569 11.0522
 797 1 26.7507 -4.23689 9.82419
 798 1 26.9358 -2.83106 9.82419
 799 1 27.0006 -2.125 11.0522
 800 1 27.0748 -0.70898 11.0522
 801 1 27.0841 0 12.2802
 802 1 27.047 1.41747 12.2802
 803 1 27.0006 2.125 13.5083
 804 1 26.8524 3.53519 13.5083
 805 1 26.7507 4.23689 12.2802
 806 1 26.4923 5.63111 12.2802
 807 1 26.3358 6.32266 13.5083
 808 1 25.9688 7.69231 13.5083
 809 1 25.7585 8.36946 12.2802
 810 1 25.2852 9.70608 12.2802
 811 1 25.0225 10.3646 13.5083
 812 1 24.4457 11.66 13.5083
 813 1 24.1321 12.2959 12.2802
 814 1 23.4555 13.5421 12.2802
 815 1 23.093 14.1514 13.5083
 816 1 22.3207 15.3406 13.5083
 817 1 21.9115 15.9196 12.2802
 818 1 21.0483 17.0446 12.2802
 819 1 20.5949 17.5897 13.5083
 820 1 19.6461 18.6435 13.5083
 821 1 19.1514 19.1514 12.2802
 822 1 18.1228 20.1274 12.2802
 823 1 17.5897 20.5949 13.5083
 824 1 16.4878 21.4873 13.5083
 825 1 15.9196 21.9115 12.2802
 826 1 14.7511 22.7147 12.2802
 827 1 14.1514 23.093 13.5083
 828 1 12.9234 23.802 13.5083
 829 1 12.2959 24.1321 12.2802
 830 1 11.0161 24.7426 12.2802
 831 1 10.3646 25.0225 13.5083
 832 1 9.04087 25.5306 13.5083
 833 1 8.36946 25.7585 12.2802
 834 1 7.00989 26.1613 12.2802
 835 1 6.32266 26.3358 13.5083
 836 1 4.93569 26.6306 13.5083
 837 1 4.23689 26.7507 12.2802
 838 1 2.83106 26.9358 12.2802
 839 1 2.125 27.0006 13.5083
 840 1 0.70898 27.0748 13.5083
 841 1 7.67225e-015 27.0841 12.2802
 842 1 -1.41747 27.047 12.2802
 843 1 -2.125 27.0006 13.5083
 844 1 -3.53519 26.8524 13.5083
 845 1 -4.23689 26.7507 12.2802
 846 1 -5.63111 26.4923 12.2802
 847 1 -6.32266 26.3358 13.5083
 848 1 -7.69231 25.9688 13.5083
 849 1 -8.36946 25.7585 12.2802
 850 1 -9.70608 25.2852 12.2802
 851 1 -10.3646 25.0225 13.5083
 852 1 -11.66 24.4457 13.5083
 853 1 -12.2959 24.1321 12.2802
 854 1 -13.5421 23.4555 12.2802
 855 1 -14.1514 23.093 13.5083
 856 1 -15.3406 22.3207 13.5083
 857 1 -15.9196 21.9115 12.2802
 858 1 -17.0446 21.0483 12.2802
 859 1 -17.5897 20.5949 13.5083
 860 1 -18.6435 19.6461 13.5083
 861 1 -19.1514 19.1514 12.2802
 862 1 -20.1274 18.1228 12.2802
 863 1 -20.5949 17.5897 13.5083
 864 1 -21.4873 16.4878 13.5083
 865 1 -21.9115 15.9196 12.2802
 866 1 -22.7147 14.7511 12.2802
 867 1 -23.093 14.1514 13.5083
 868 1 -23.802 12.9234 13.5083
 869 1 -24.1321 12.2959 12.2802
 870 1 -24.7426 11.0161 12.2802
 871 1 -25.0225 10.3646 13.5083
 872 1 -25.5306 9.04087 13.5083
 873 1 -25.7585 8.36946 12.2802
 874 1 -26.1613 7.00989 12.2802
 875 1 -26.3358 6.32266 13.5083
 876 1 -26.6306 4.93569 13.5083
 877 1 -26.7507 4.23689 12.2802
 878 1 -26.9358 2.83106 12.2802
 879 1 -27.0006 2.125 13.5083
 880 1 -27.0748 0.70898 13.5083
 881 1 -27.0841 1.53445e-014 12.2802
 882 1 -27.047 -1.41747 12.2802
 883 1 -27.0006 -2.125 13.5083
 884 1 -26.8524 -3.53519 13.5083
 885 1 -26.7507 -4.23689 12.2802
 886 1 -26.4923 -5.63111 12.2802
 887 1 -26.3358 -6.32266 13.5083
 888 1 -25.9688 -7.69231 13.5083
 889 1 -25.7585 -8.36946 12.2802
 890 1 -25.2852 -9.70608 12.2802
 891 1 -25.0225 -10.3646 13.5083
 892 1 -24.4457 -11.66 13.5083
 893 1 -24.1321 -12.2959 12.2802
 894 1 -23.4555 -13.5421 12.2802
 895 1 -23.093 -14.1514 13.5083
 896 1 -22.3207 -15.3406 13.5083
 897 1 -21.9115 -15.9196 12.2802
 898 1 -21.0483 -17.0446 12.2802
 899 1 -20.5949 -17.5897 13.5083
 900 1 -19.6461 -18.6435 13.5083
 901 1 -19.1514 -19.1514 12.2802
 902 1 -18.1228 -20.1274 12.2802
 903 1 -17.5897 -20.5949 13.5083
 904 1 -16.4878 -21.4873 13.5083
 905 1 -15.9196 -21.9115 12.2802
 906 1 -14.7511 -22.7147 12.2802
 907 1 -14.1514 -23.093 13.5083
 908 1 -12.9234 -23.802 13.5083
 909 1 -12.2959 -24.1321 12.2802
 910 1 -11.0161 -24.7426 12.2802
 911 1 -10.3646 -25.0225 13.5083
 912 1 -9.04087 -25.5306 13.5083
 913 1 -8.36946 -25.7585 12.2802
 914 1 -7.00989 -26.1613 12.2802
 915 1 -6.32266 -26.3358 13.5083
 916 1 -4.93569 -26.6306 13.5083
 917 1 -4.23689 -26.7507 12.2802
 918 1 -2.83106 -26.9358 12.2802
 919 1 -2.125 -27.0006 13.5083
 920 1 -0.70898 -27.0748 13.5083
 921 1 -2.90306e-014 -27.0841 12.2802
 922 1 1.41747 -27.047 12.2802
 923 1 2.125 -27.0006 13.5083
 924 1 3.53519 -26.8524 13.5083
 925 1 4.23689 -26.7507 12.2802
 926 1 5.63111 -26.4923 12.2802
 927 1 6.32266 -26.3358 13.5083
 928 1 7.69231 -25.9688 13.5083
 929 1 8.36946 -25.7585 12.2802
 930 1 9.70608 -25.2852 12.2802
 931 1 10.3646 -25.0225 13.5083
 932 1 11.66 -24.4457 13.5083
 933 1 12.2959 -24.1321 12.2802
 934 1 13.5421 -23.4555 12.2802
 935 1 14.1514 -23.093 13.5083
 936 1 15.3406 -22.3207 13.5083
 937 1 15.9196 -21.9115 12.2802
 938 1 17.0446 -21.0483 12.2802
 939 1 17.5897 -20.5949 13.5083
 940 1 18.6435 -19.6461 13.5083
 941 1 19.1514 -19.1514 12.2802
 942 1 20.1274 -18.1228 12.2802
 943 1 20.5949 -17.5897 13.5083
 944 1 21.4873 -16.4878 13.5083
 945 1 21.9115 -15.9196 12.2802
 946 1 22.7147 -14.7511 12.2802
 947 1 23.093 -14.1514 13.5083
 948 1 23.802 -12.9234 13.5083
 949 1 24.1321 -12.2959 12.2802
 950 1 24.7426 -11.0161 12.2802
 951 1 25.0225 -10.3646 13.5083
 952 1 25.5306 -9.04087 13.5083
 953 1 25.7585 -8.36946 12.2802
 954 1 26.1613 -7.00989 12.2802
 955 1 26.3358 -6.32266 13.5083
 956 1 26.6306 -4.93569 13.5083
 957 1 26.7507 -4.23689 12.2802
 958 1 26.9358 -2.83106 12.2802
 959 1 27.0006 -2.125 13.5083
 960 1 27.0748 -0.70898 13.5083