ITEM: TIMESTEP
0
ITEM: NUMBER OF ATOMS
3024
ITEM: BOX BOUNDS ss ss ss
-5 110
-5 310
-1 1
ITEM: ATOMS id type xu yu zu
 1 1 0 0 0
 2 1 -2.45605 1.418 0
 3 1 -2.45605 4.254 0
 4 1 0 5.672 0
 5 1 4.9121 0 0
 6 1 2.45605 1.418 0
 7 1 2.45605 4.254 0
 8 1 4.9121 5.672 0
 9 1 9.82419 0 0
 10 1 7.36814 1.418 0
 11 1 7.36814 4.254 0
 12 1 9.82419 5.672 0
 13 1 14.7363 0 0
 14 1 12.2802 1.418 0
 15 1 12.2802 4.254 0
 16 1 14.7363 5.672 0
 17 1 19.6484 0 0
 18 1 17.1923 1.418 0
 19 1 17.1923 4.254 0
 20 1 19.6484 5.672 0
 21 1 24.5605 0 0
 22 1 22.1044 1.418 0
 23 1 22.1044 4.254 0
 24 1 24.5605 5.672 0
 25 1 29.4726 0 0
 26 1 27.0165 1.418 0
 27 1 27.0165 4.254 0
 28 1 29.4726 5.672 0
 29 1 34.3847 0 0
 30 1 31.9286 1.418 0
 31 1 31.9286 4.254 0
 32 1 34.3847 5.672 0
 33 1 39.2968 0 0
 34 1 36.8407 1.418 0
 35 1 36.8407 4.254 0
 36 1 39.2968 5.672 0
 37 1 44.2089 0 0
 38 1 41.7528 1.418 0
 39 1 41.7528 4.254 0
 40 1 44.2089 5.672 0
 41 1 49.121 0 0
 42 1 46.6649 1.418 0
 43 1 46.6649 4.254 0
 44 1 49.121 5.672 0
 45 1 54.0331 0 0
 46 1 51.577 1.418 0
 47 1 51.577 4.254 0
 48 1 54.0331 5.672 0
 49 1 58.9452 0 0
 50 1 56.4891 1.418 0
 51 1 56.4891 4.254 0
 52 1 58.9452 5.672 0
 53 1 63.8573 0 0
 54 1 61.4012 1.418 0
 55 1 61.4012 4.254 0
 56 1 63.8573 5.672 0
 57 1 68.7693 0 0
 58 1 66.3133 1.418 0
 59 1 66.3133 4.254 0
 60 1 68.7693 5.672 0
 61 1 73.6814 0 0
 62 1 71.2254 1.418 0
 63 1 71.2254 4.254 0
 64 1 73.6814 5.672 0
 65 1 78.5935 0 0
 66 1 76.1375 1.418 0
 67 1 76.1375 4.254 0
 68 1 78.5935 5.672 0
 69 1 83.5056 0 0
 70 1 81.0496 1.418 0
 71 1 81.0496 4.254 0
 72 1 83.5056 5.672 0
 73 1 88.4177 0 0
 74 1 85.9617 1.418 0
 75 1 85.9617 4.254 0
 76 1 88.4177 5.672 0
 77 1 93.3298 0 0
 78 1 90.8738 1.418 0
 79 1 90.8738 4.254 0
 80 1 93.3298 5.672 0
 81 1 98.2419 0 0
 82 1 95.7859 1.418 0
 83 1 95.7859 4.254 0
 84 1 98.2419 5.672 0
 85 1 0 8.508 0
 86 1 -2.45605 9.926 0
 87 1 -2.45605 12.762 0
 88 1 0 14.18 0
 89 1 4.9121 8.508 0
 90 1 2.45605 9.926 0
 91 1 2.45605 12.762 0
 92 1 4.9121 14.18 0
 93 1 9.82419 8.508 0
 94 1 7.36814 9.926 0
 95 1 7.36814 12.762 0
 96 1 9.82419 14.18 0
 97 1 14.7363 8.508 0
 98 1 12.2802 9.926 0
 99 1 12.2802 12.762 0
 100 1 14.7363 14.18 0
 101 1 19.6484 8.508 0
 102 1 17.1923 9.926 0
 103 1 17.1923 12.762 0
 104 1 19.6484 14.18 0
 105 1 24.5605 8.508 0
 106 1 22.1044 9.926 0
 107 1 22.1044 12.762 0
 108 1 24.5605 14.18 0
 109 1 29.4726 8.508 0
 110 1 27.0165 9.926 0
 111 1 27.0165 12.762 0
 112 1 29.4726 14.18 0
 113 1 34.3847 8.508 0
 114 1 31.9286 9.926 0
 115 1 31.9286 12.762 0
 116 1 34.3847 14.18 0
 117 1 39.2968 8.508 0
 118 1 36.8407 9.926 0
 119 1 36.8407 12.762 0
 120 1 39.2968 14.18 0
 121 1 44.2089 8.508 0
 122 1 41.7528 9.926 0
 123 1 41.7528 12.762 0
 124 1 44.2089 14.18 0
 125 1 49.121 8.508 0
 126 1 46.6649 9.926 0
 127 1 46.6649 12.762 0
 128 1 49.121 14.18 0
 129 1 54.0331 8.508 0
 130 1 51.577 9.926 0
 131 1 51.577 12.762 0
 132 1 54.0331 14.18 0
 133 1 58.9452 8.508 0
 134 1 56.4891 9.926 0
 135 1 56.4891 12.762 0
 136 1 58.9452 14.18 0
 137 1 63.8573 8.508 0
 138 1 61.4012 9.926 0
 139 1 61.4012 12.762 0
 140 1 63.8573 14.18 0
 141 1 68.7693 8.508 0
 142 1 66.3133 9.926 0
 143 1 66.3133 12.762 0
 144 1 68.7693 14.18 0
 145 1 73.6814 8.508 0
 146 1 71.2254 9.926 0
 147 1 71.2254 12.762 0
 148 1 73.6814 14.18 0
 149 1 78.5935 8.508 0
 150 1 76.1375 9.926 0
 151 1 76.1375 12.762 0
 152 1 78.5935 14.18 0
 153 1 83.5056 8.508 0
 154 1 81.0496 9.926 0
 155 1 81.0496 12.762 0
 156 1 83.5056 14.18 0
 157 1 88.4177 8.508 0
 158 1 85.9617 9.926 0
 159 1 85.9617 12.762 0
 160 1 88.4177 14.18 0
 161 1 93.3298 8.508 0
 162 1 90.8738 9.926 0
 163 1 90.8738 12.762 0
 164 1 93.3298 14.18 0
 165 1 98.2419 8.508 0
 166 1 95.7859 9.926 0
 167 1 95.7859 12.762 0
 168 1 98.2419 14.18 0
 169 1 0 17.016 0
 170 1 -2.45605 18.434 0
 171 1 -2.45605 21.27 0
 172 1 0 22.688 0
 173 1 4.9121 17.016 0
 174 1 2.45605 18.434 0
 175 1 2.45605 21.27 0
 176 1 4.9121 22.688 0
 177 1 9.82419 17.016 0
 178 1 7.36814 18.434 0
 179 1 7.36814 21.27 0
 180 1 9.82419 22.688 0
 181 1 14.7363 17.016 0
 182 1 12.2802 18.434 0
 183 1 12.2802 21.27 0
 184 1 14.7363 22.688 0
 185 1 19.6484 17.016 0
 186 1 17.1923 18.434 0
 187 1 17.1923 21.27 0
 188 1 19.6484 22.688 0
 189 1 24.5605 17.016 0
 190 1 22.1044 18.434 0
 191 1 22.1044 21.27 0
 192 1 24.5605 22.688 0
 193 1 29.4726 17.016 0
 194 1 27.0165 18.434 0
 195 1 27.0165 21.27 0
 196 1 29.4726 22.688 0
 197 1 34.3847 17.016 0
 198 1 31.9286 18.434 0
 199 1 31.9286 21.27 0
 200 1 34.3847 22.688 0
 201 1 39.2968 17.016 0
 202 1 36.8407 18.434 0
 203 1 36.8407 21.27 0
 204 1 39.2968 22.688 0
 205 1 44.2089 17.016 0
 206 1 41.7528 18.434 0
 207 1 41.7528 21.27 0
 208 1 44.2089 22.688 0
 209 1 49.121 17.016 0
 210 1 46.6649 18.434 0
 211 1 46.6649 21.27 0
 212 1 49.121 22.688 0
 213 1 54.0331 17.016 0
 214 1 51.577 18.434 0
 215 1 51.577 21.27 0
 216 1 54.0331 22.688 0
 217 1 58.9452 17.016 0
 218 1 56.4891 18.434 0
 219 1 56.4891 21.27 0
 220 1 58.9452 22.688 0
 221 1 63.8573 17.016 0
 222 1 61.4012 18.434 0
 223 1 61.4012 21.27 0
 224 1 63.8573 22.688 0
 225 1 68.7693 17.016 0
 226 1 66.3133 18.434 0
 227 1 66.3133 21.27 0
 228 1 68.7693 22.688 0
 229 1 73.6814 17.016 0
 230 1 71.2254 18.434 0
 231 1 71.2254 21.27 0
 232 1 73.6814 22.688 0
 233 1 78.5935 17.016 0
 234 1 76.1375 18.434 0
 235 1 76.1375 21.27 0
 236 1 78.5935 22.688 0
 237 1 83.5056 17.016 0
 238 1 81.0496 18.434 0
 239 1 81.0496 21.27 0
 240 1 83.5056 22.688 0
 241 1 88.4177 17.016 0
 242 1 85.9617 18.434 0
 243 1 85.9617 21.27 0
 244 1 88.4177 22.688 0
 245 1 93.3298 17.016 0
 246 1 90.8738 18.434 0
 247 1 90.8738 21.27 0
 248 1 93.3298 22.688 0
 249 1 98.2419 17.016 0
 250 1 95.7859 18.434 0
 251 1 95.7859 21.27 0
 252 1 98.2419 22.688 0
 253 1 0 25.524 0
 254 1 -2.45605 26.942 0
 255 1 -2.45605 29.778 0
 256 1 0 31.196 0
 257 1 4.9121 25.524 0
 258 1 2.45605 26.942 0
 259 1 2.45605 29.778 0
 260 1 4.9121 31.196 0
 261 1 9.82419 25.524 0
 262 1 7.36814 26.942 0
 263 1 7.36814 29.778 0
 264 1 9.82419 31.196 0
 265 1 14.7363 25.524 0
 266 1 12.2802 26.942 0
 267 1 12.2802 29.778 0
 268 1 14.7363 31.196 0
 269 1 19.6484 25.524 0
 270 1 17.1923 26.942 0
 271 1 17.1923 29.778 0
 272 1 19.6484 31.196 0
 273 1 24.5605 25.524 0
 274 1 22.1044 26.942 0
 275 1 22.1044 29.778 0
 276 1 24.5605 31.196 0
 277 1 29.4726 25.524 0
 278 1 27.0165 26.942 0
 279 1 27.0165 29.778 0
 280 1 29.4726 31.196 0
 281 1 34.3847 25.524 0
 282 1 31.9286 26.942 0
 283 1 31.9286 29.778 0
 284 1 34.3847 31.196 0
 285 1 39.2968 25.524 0
 286 1 36.8407 26.942 0
 287 1 36.8407 29.778 0
 288 1 39.2968 31.196 0
 289 1 44.2089 25.524 0
 290 1 41.7528 26.942 0
 291 1 41.7528 29.778 0
 292 1 44.2089 31.196 0
 293 1 49.121 25.524 0
 294 1 46.6649 26.942 0
 295 1 46.6649 29.778 0
 296 1 49.121 31.196 0
 297 1 54.0331 25.524 0
 298 1 51.577 26.942 0
 299 1 51.577 29.778 0
 300 1 54.0331 31.196 0
 301 1 58.9452 25.524 0
 302 1 56.4891 26.942 0
 303 1 56.4891 29.778 0
 304 1 58.9452 31.196 0
 305 1 63.8573 25.524 0
 306 1 61.4012 26.942 0
 307 1 61.4012 29.778 0
 308 1 63.8573 31.196 0
 309 1 68.7693 25.524 0
 310 1 66.3133 26.942 0
 311 1 66.3133 29.778 0
 312 1 68.7693 31.196 0
 313 1 73.6814 25.524 0
 314 1 71.2254 26.942 0
 315 1 71.2254 29.778 0
 316 1 73.6814 31.196 0
 317 1 78.5935 25.524 0
 318 1 76.1375 26.942 0
 319 1 76.1375 29.778 0
 320 1 78.5935 31.196 0
 321 1 83.5056 25.524 0
 322 1 81.0496 26.942 0
 323 1 81.0496 29.778 0
 324 1 83.5056 31.196 0
 325 1 88.4177 25.524 0
 326 1 85.9617 26.942 0
 327 1 85.9617 29.778 0
 328 1 88.4177 31.196 0
 329 1 93.3298 25.524 0
 330 1 90.8738 26.942 0
 331 1 90.8738 29.778 0
 332 1 93.3298 31.196 0
 333 1 98.2419 25.524 0
 334 1 95.7859 26.942 0
 335 1 95.7859 29.778 0
 336 1 98.2419 31.196 0
 337 1 0 34.032 0
 338 1 -2.45605 35.45 0
 339 1 -2.45605 38.286 0
 340 1 0 39.704 0
 341 1 4.9121 34.032 0
 342 1 2.45605 35.45 0
 343 1 2.45605 38.286 0
 344 1 4.9121 39.704 0
 345 1 9.82419 34.032 0
 346 1 7.36814 35.45 0
 347 1 7.36814 38.286 0
 348 1 9.82419 39.704 0
 349 1 14.7363 34.032 0
 350 1 12.2802 35.45 0
 351 1 12.2802 38.286 0
 352 1 14.7363 39.704 0
 353 1 19.6484 34.032 0
 354 1 17.1923 35.45 0
 355 1 17.1923 38.286 0
 356 1 19.6484 39.704 0
 357 1 24.5605 34.032 0
 358 1 22.1044 35.45 0
 359 1 22.1044 38.286 0
 360 1 24.5605 39.704 0
 361 1 29.4726 34.032 0
 362 1 27.0165 35.45 0
 363 1 27.0165 38.286 0
 364 1 29.4726 39.704 0
 365 1 34.3847 34.032 0
 366 1 31.9286 35.45 0
 367 1 31.9286 38.286 0
 368 1 34.3847 39.704 0
 369 1 39.2968 34.032 0
 370 1 36.8407 35.45 0
 371 1 36.8407 38.286 0
 372 1 39.2968 39.704 0
 373 1 44.2089 34.032 0
 374 1 41.7528 35.45 0
 375 1 41.7528 38.286 0
 376 1 44.2089 39.704 0
 377 1 49.121 34.032 0
 378 1 46.6649 35.45 0
 379 1 46.6649 38.286 0
 380 1 49.121 39.704 0
 381 1 54.0331 34.032 0
 382 1 51.577 35.45 0
 383 1 51.577 38.286 0
 384 1 54.0331 39.704 0
 385 1 58.9452 34.032 0
 386 1 56.4891 35.45 0
 387 1 56.4891 38.286 0
 388 1 58.9452 39.704 0
 389 1 63.8573 34.032 0
 390 1 61.4012 35.45 0
 391 1 61.4012 38.286 0
 392 1 63.8573 39.704 0
 393 1 68.7693 34.032 0
 394 1 66.3133 35.45 0
 395 1 66.3133 38.286 0
 396 1 68.7693 39.704 0
 397 1 73.6814 34.032 0
 398 1 71.2254 35.45 0
 399 1 71.2254 38.286 0
 400 1 73.6814 39.704 0
 401 1 78.5935 34.032 0
 402 1 76.1375 35.45 0
 403 1 76.1375 38.286 0
 404 1 78.5935 39.704 0
 405 1 83.5056 34.032 0
 406 1 81.0496 35.45 0
 407 1 81.0496 38.286 0
 408 1 83.5056 39.704 0
 409 1 88.4177 34.032 0
 410 1 85.9617 35.45 0
 411 1 85.9617 38.286 0
 412 1 88.4177 39.704 0
 413 1 93.3298 34.032 0
 414 1 90.8738 35.45 0
 415 1 90.8738 38.286 0
 416 1 93.3298 39.704 0
 417 1 98.2419 34.032 0
 418 1 95.7859 35.45 0
 419 1 95.7859 38.286 0
 420 1 98.2419 39.704 0
 421 1 0 42.54 0
 422 1 -2.45605 43.958 0
 423 1 -2.45605 46.794 0
 424 1 0 48.212 0
 425 1 4.9121 42.54 0
 426 1 2.45605 43.958 0
 427 1 2.45605 46.794 0
 428 1 4.9121 48.212 0
 429 1 9.82419 42.54 0
 430 1 7.36814 43.958 0
 431 1 7.36814 46.794 0
 432 1 9.82419 48.212 0
 433 1 14.7363 42.54 0
 434 1 12.2802 43.958 0
 435 1 12.2802 46.794 0
 436 1 14.7363 48.212 0
 437 1 19.6484 42.54 0
 438 1 17.1923 43.958 0
 439 1 17.1923 46.794 0
 440 1 19.6484 48.212 0
 441 1 24.5605 42.54 0
 442 1 22.1044 43.958 0
 443 1 22.1044 46.794 0
 444 1 24.5605 48.212 0
 445 1 29.4726 42.54 0
 446 1 27.0165 43.958 0
 447 1 27.0165 46.794 0
 448 1 29.4726 48.212 0
 449 1 34.3847 42.54 0
 450 1 31.9286 43.958 0
 451 1 31.9286 46.794 0
 452 1 34.3847 48.212 0
 453 1 39.2968 42.54 0
 454 1 36.8407 43.958 0
 455 1 36.8407 46.794 0
 456 1 39.2968 48.212 0
 457 1 44.2089 42.54 0
 458 1 41.7528 43.958 0
 459 1 41.7528 46.794 0
 460 1 44.2089 48.212 0
 461 1 49.121 42.54 0
 462 1 46.6649 43.958 0
 463 1 46.6649 46.794 0
 464 1 49.121 48.212 0
 465 1 54.0331 42.54 0
 466 1 51.577 43.958 0
 467 1 51.577 46.794 0
 468 1 54.0331 48.212 0
 469 1 58.9452 42.54 0
 470 1 56.4891 43.958 0
 471 1 56.4891 46.794 0
 472 1 58.9452 48.212 0
 473 1 63.8573 42.54 0
 474 1 61.4012 43.958 0
 475 1 61.4012 46.794 0
 476 1 63.8573 48.212 0
 477 1 68.7693 42.54 0
 478 1 66.3133 43.958 0
 479 1 66.3133 46.794 0
 480 1 68.7693 48.212 0
 481 1 73.6814 42.54 0
 482 1 71.2254 43.958 0
 483 1 71.2254 46.794 0
 484 1 73.6814 48.212 0
 485 1 78.5935 42.54 0
 486 1 76.1375 43.958 0
 487 1 76.1375 46.794 0
 488 1 78.5935 48.212 0
 489 1 83.5056 42.54 0
 490 1 81.0496 43.958 0
 491 1 81.0496 46.794 0
 492 1 83.5056 48.212 0
 493 1 88.4177 42.54 0
 494 1 85.9617 43.958 0
 495 1 85.9617 46.794 0
 496 1 88.4177 48.212 0
 497 1 93.3298 42.54 0
 498 1 90.8738 43.958 0
 499 1 90.8738 46.794 0
 500 1 93.3298 48.212 0
 501 1 98.2419 42.54 0
 502 1 95.7859 43.958 0
 503 1 95.7859 46.794 0
 504 1 98.2419 48.212 0
 505 1 0 51.048 0
 506 1 -2.45605 52.466 0
 507 1 -2.45605 55.302 0
 508 1 0 56.72 0
 509 1 4.9121 51.048 0
 510 1 2.45605 52.466 0
 511 1 2.45605 55.302 0
 512 1 4.9121 56.72 0
 513 1 9.82419 51.048 0
 514 1 7.36814 52.466 0
 515 1 7.36814 55.302 0
 516 1 9.82419 56.72 0
 517 1 14.7363 51.048 0
 518 1 12.2802 52.466 0
 519 1 12.2802 55.302 0
 520 1 14.7363 56.72 0
 521 1 19.6484 51.048 0
 522 1 17.1923 52.466 0
 523 1 17.1923 55.302 0
 524 1 19.6484 56.72 0
 525 1 24.5605 51.048 0
 526 1 22.1044 52.466 0
 527 1 22.1044 55.302 0
 528 1 24.5605 56.72 0
 529 1 29.4726 51.048 0
 530 1 27.0165 52.466 0
 531 1 27.0165 55.302 0
 532 1 29.4726 56.72 0
 533 1 34.3847 51.048 0
 534 1 31.9286 52.466 0
 535 1 31.9286 55.302 0
 536 1 34.3847 56.72 0
 537 1 39.2968 51.048 0
 538 1 36.8407 52.466 0
 539 1 36.8407 55.302 0
 540 1 39.2968 56.72 0
 541 1 44.2089 51.048 0
 542 1 41.7528 52.466 0
 543 1 41.7528 55.302 0
 544 1 44.2089 56.72 0
 545 1 49.121 51.048 0
 546 1 46.6649 52.466 0
 547 1 46.6649 55.302 0
 548 1 49.121 56.72 0
 549 1 54.0331 51.048 0
 550 1 51.577 52.466 0
 551 1 51.577 55.302 0
 552 1 54.0331 56.72 0
 553 1 58.9452 51.048 0
 554 1 56.4891 52.466 0
 555 1 56.4891 55.302 0
 556 1 58.9452 56.72 0
 557 1 63.8573 51.048 0
 558 1 61.4012 52.466 0
 559 1 61.4012 55.302 0
 560 1 63.8573 56.72 0
 561 1 68.7693 51.048 0
 562 1 66.3133 52.466 0
 563 1 66.3133 55.302 0
 564 1 68.7693 56.72 0
 565 1 73.6814 51.048 0
 566 1 71.2254 52.466 0
 567 1 71.2254 55.302 0
 568 1 73.6814 56.72 0
 569 1 78.5935 51.048 0
 570 1 76.1375 52.466 0
 571 1 76.1375 55.302 0
 572 1 78.5935 56.72 0
 573 1 83.5056 51.048 0
 574 1 81.0496 52.466 0
 575 1 81.0496 55.302 0
 576 1 83.5056 56.72 0
 577 1 88.4177 51.048 0
 578 1 85.9617 52.466 0
 579 1 85.9617 55.302 0
 580 1 88.4177 56.72 0
 581 1 93.3298 51.048 0
 582 1 90.8738 52.466 0
 583 1 90.8738 55.302 0
 584 1 93.3298 56.72 0
 585 1 98.2419 51.048 0
 586 1 95.7859 52.466 0
 587 1 95.7859 55.302 0
 588 1 98.2419 56.72 0
 589 1 0 59.556 0
 590 1 -2.45605 60.974 0
 591 1 -2.45605 63.81 0
 592 1 0 65.228 0
 593 1 4.9121 59.556 0
 594 1 2.45605 60.974 0
 595 1 2.45605 63.81 0
 596 1 4.9121 65.228 0
 597 1 9.82419 59.556 0
 598 1 7.36814 60.974 0
 599 1 7.36814 63.81 0
 600 1 9.82419 65.228 0
 601 1 14.7363 59.556 0
 602 1 12.2802 60.974 0
 603 1 12.2802 63.81 0
 604 1 14.7363 65.228 0
 605 1 19.6484 59.556 0
 606 1 17.1923 60.974 0
 607 1 17.1923 63.81 0
 608 1 19.6484 65.228 0
 609 1 24.5605 59.556 0
 610 1 22.1044 60.974 0
 611 1 22.1044 63.81 0
 612 1 24.5605 65.228 0
 613 1 29.4726 59.556 0
 614 1 27.0165 60.974 0
 615 1 27.0165 63.81 0
 616 1 29.4726 65.228 0
 617 1 34.3847 59.556 0
 618 1 31.9286 60.974 0
 619 1 31.9286 63.81 0
 620 1 34.3847 65.228 0
 621 1 39.2968 59.556 0
 622 1 36.8407 60.974 0
 623 1 36.8407 63.81 0
 624 1 39.2968 65.228 0
 625 1 44.2089 59.556 0
 626 1 41.7528 60.974 0
 627 1 41.7528 63.81 0
 628 1 44.2089 65.228 0
 629 1 49.121 59.556 0
 630 1 46.6649 60.974 0
 631 1 46.6649 63.81 0
 632 1 49.121 65.228 0
 633 1 54.0331 59.556 0
 634 1 51.577 60.974 0
 635 1 51.577 63.81 0
 636 1 54.0331 65.228 0
 637 1 58.9452 59.556 0
 638 1 56.4891 60.974 0
 639 1 56.4891 63.81 0
 640 1 58.9452 65.228 0
 641 1 63.8573 59.556 0
 642 1 61.4012 60.974 0
 643 1 61.4012 63.81 0
 644 1 63.8573 65.228 0
 645 1 68.7693 59.556 0
 646 1 66.3133 60.974 0
 647 1 66.3133 63.81 0
 648 1 68.7693 65.228 0
 649 1 73.6814 59.556 0
 650 1 71.2254 60.974 0
 651 1 71.2254 63.81 0
 652 1 73.6814 65.228 0
 653 1 78.5935 59.556 0
 654 1 76.1375 60.974 0
 655 1 76.1375 63.81 0
 656 1 78.5935 65.228 0
 657 1 83.5056 59.556 0
 658 1 81.0496 60.974 0
 659 1 81.0496 63.81 0
 660 1 83.5056 65.228 0
 661 1 88.4177 59.556 0
 662 1 85.9617 60.974 0
 663 1 85.9617 63.81 0
 664 1 88.4177 65.228 0
 665 1 93.3298 59.556 0
 666 1 90.8738 60.974 0
 667 1 90.8738 63.81 0
 668 1 93.3298 65.228 0
 669 1 98.2419 59.556 0
 670 1 95.7859 60.974 0
 671 1 95.7859 63.81 0
 672 1 98.2419 65.228 0
 673 1 0 68.064 0
 674 1 -2.45605 69.482 0
 675 1 -2.45605 72.318 0
 676 1 0 73.736 0
 677 1 4.9121 68.064 0
 678 1 2.45605 69.482 0
 679 1 2.45605 72.318 0
 680 1 4.9121 73.736 0
 681 1 9.82419 68.064 0
 682 1 7.36814 69.482 0
 683 1 7.36814 72.318 0
 684 1 9.82419 73.736 0
 685 1 14.7363 68.064 0
 686 1 12.2802 69.482 0
 687 1 12.2802 72.318 0
 688 1 14.7363 73.736 0
 689 1 19.6484 68.064 0
 690 1 17.1923 69.482 0
 691 1 17.1923 72.318 0
 692 1 19.6484 73.736 0
 693 1 24.5605 68.064 0
 694 1 22.1044 69.482 0
 695 1 22.1044 72.318 0
 696 1 24.5605 73.736 0
 697 1 29.4726 68.064 0
 698 1 27.0165 69.482 0
 699 1 27.0165 72.318 0
 700 1 29.4726 73.736 0
 701 1 34.3847 68.064 0
 702 1 31.9286 69.482 0
 703 1 31.9286 72.318 0
 704 1 34.3847 73.736 0
 705 1 39.2968 68.064 0
 706 1 36.8407 69.482 0
 707 1 36.8407 72.318 0
 708 1 39.2968 73.736 0
 709 1 44.2089 68.064 0
 710 1 41.7528 69.482 0
 711 1 41.7528 72.318 0
 712 1 44.2089 73.736 0
 713 1 49.121 68.064 0
 714 1 46.6649 69.482 0
 715 1 46.6649 72.318 0
 716 1 49.121 73.736 0
 717 1 54.0331 68.064 0
 718 1 51.577 69.482 0
 719 1 51.577 72.318 0
 720 1 54.0331 73.736 0
 721 1 58.9452 68.064 0
 722 1 56.4891 69.482 0
 723 1 56.4891 72.318 0
 724 1 58.9452 73.736 0
 725 1 63.8573 68.064 0
 726 1 61.4012 69.482 0
 727 1 61.4012 72.318 0
 728 1 63.8573 73.736 0
 729 1 68.7693 68.064 0
 730 1 66.3133 69.482 0
 731 1 66.3133 72.318 0
 732 1 68.7693 73.736 0
 733 1 73.6814 68.064 0
 734 1 71.2254 69.482 0
 735 1 71.2254 72.318 0
 736 1 73.6814 73.736 0
 737 1 78.5935 68.064 0
 738 1 76.1375 69.482 0
 739 1 76.1375 72.318 0
 740 1 78.5935 73.736 0
 741 1 83.5056 68.064 0
 742 1 81.0496 69.482 0
 743 1 81.0496 72.318 0
 744 1 83.5056 73.736 0
 745 1 88.4177 68.064 0
 746 1 85.9617 69.482 0
 747 1 85.9617 72.318 0
 748 1 88.4177 73.736 0
 749 1 93.3298 68.064 0
 750 1 90.8738 69.482 0
 751 1 90.8738 72.318 0
 752 1 93.3298 73.736 0
 753 1 98.2419 68.064 0
 754 1 95.7859 69.482 0
 755 1 95.7859 72.318 0
 756 1 98.2419 73.736 0
 757 1 0 76.572 0
 758 1 -2.45605 77.99 0
 759 1 -2.45605 80.826 0
 760 1 0 82.244 0
 761 1 4.9121 76.572 0
 762 1 2.45605 77.99 0
 763 1 2.45605 80.826 0
 764 1 4.9121 82.244 0
 765 1 9.82419 76.572 0
 766 1 7.36814 77.99 0
 767 1 7.36814 80.826 0
 768 1 9.82419 82.244 0
 769 1 14.7363 76.572 0
 770 1 12.2802 77.99 0
 771 1 12.2802 80.826 0
 772 1 14.7363 82.244 0
 773 1 19.6484 76.572 0
 774 1 17.1923 77.99 0
 775 1 17.1923 80.826 0
 776 1 19.6484 82.244 0
 777 1 24.5605 76.572 0
 778 1 22.1044 77.99 0
 779 1 22.1044 80.826 0
 780 1 24.5605 82.244 0
 781 1 29.4726 76.572 0
 782 1 27.0165 77.99 0
 783 1 27.0165 80.826 0
 784 1 29.4726 82.244 0
 785 1 34.3847 76.572 0
 786 1 31.9286 77.99 0
 787 1 31.9286 80.826 0
 788 1 34.3847 82.244 0
 789 1 39.2968 76.572 0
 790 1 36.8407 77.99 0
 791 1 36.8407 80.826 0
 792 1 39.2968 82.244 0
 793 1 44.2089 76.572 0
 794 1 41.7528 77.99 0
 795 1 41.7528 80.826 0
 796 1 44.2089 82.244 0
 797 1 49.121 76.572 0
 798 1 46.6649 77.99 0
 799 1 46.6649 80.826 0
 800 1 49.121 82.244 0
 801 1 54.0331 76.572 0
 802 1 51.577 77.99 0
 803 1 51.577 80.826 0
 804 1 54.0331 82.244 0
 805 1 58.9452 76.572 0
 806 1 56.4891 77.99 0
 807 1 56.4891 80.826 0
 808 1 58.9452 82.244 0
 809 1 63.8573 76.572 0
 810 1 61.4012 77.99 0
 811 1 61.4012 80.826 0
 812 1 63.8573 82.244 0
 813 1 68.7693 76.572 0
 814 1 66.3133 77.99 0
 815 1 66.3133 80.826 0
 816 1 68.7693 82.244 0
 817 1 73.6814 76.572 0
 818 1 71.2254 77.99 0
 819 1 71.2254 80.826 0
 820 1 73.6814 82.244 0
 821 1 78.5935 76.572 0
 822 1 76.1375 77.99 0
 823 1 76.1375 80.826 0
 824 1 78.5935 82.244 0
 825 1 83.5056 76.572 0
 826 1 81.0496 77.99 0
 827 1 81.0496 80.826 0
 828 1 83.5056 82.244 0
 829 1 88.4177 76.572 0
 830 1 85.9617 77.99 0
 831 1 85.9617 80.826 0
 832 1 88.4177 82.244 0
 833 1 93.3298 76.572 0
 834 1 90.8738 77.99 0
 835 1 90.8738 80.826 0
 836 1 93.3298 82.244 0
 837 1 98.2419 76.572 0
 838 1 95.7859 77.99 0
 839 1 95.7859 80.826 0
 840 1 98.2419 82.244 0
 841 1 0 85.08 0
 842 1 -2.45605 86.498 0
 843 1 -2.45605 89.334 0
 844 1 0 90.752 0
 845 1 4.9121 85.08 0
 846 1 2.45605 86.498 0
 847 1 2.45605 89.334 0
 848 1 4.9121 90.752 0
 849 1 9.82419 85.08 0
 850 1 7.36814 86.498 0
 851 1 7.36814 89.334 0
 852 1 9.82419 90.752 0
 853 1 14.7363 85.08 0
 854 1 12.2802 86.498 0
 855 1 12.2802 89.334 0
 856 1 14.7363 90.752 0
 857 1 19.6484 85.08 0
 858 1 17.1923 86.498 0
 859 1 17.1923 89.334 0
 860 1 19.6484 90.752 0
 861 1 24.5605 85.08 0
 862 1 22.1044 86.498 0
 863 1 22.1044 89.334 0
 864 1 24.5605 90.752 0
 865 1 29.4726 85.08 0
 866 1 27.0165 86.498 0
 867 1 27.0165 89.334 0
 868 1 29.4726 90.752 0
 869 1 34.3847 85.08 0
 870 1 31.9286 86.498 0
 871 1 31.9286 89.334 0
 872 1 34.3847 90.752 0
 873 1 39.2968 85.08 0
 874 1 36.8407 86.498 0
 875 1 36.8407 89.334 0
 876 1 39.2968 90.752 0
 877 1 44.2089 85.08 0
 878 1 41.7528 86.498 0
 879 1 41.7528 89.334 0
 880 1 44.2089 90.752 0
 881 1 49.121 85.08 0
 882 1 46.6649 86.498 0
 883 1 46.6649 89.334 0
 884 1 49.121 90.752 0
 885 1 54.0331 85.08 0
 886 1 51.577 86.498 0
 887 1 51.577 89.334 0
 888 1 54.0331 90.752 0
 889 1 58.9452 85.08 0
 890 1 56.4891 86.498 0
 891 1 56.4891 89.334 0
 892 1 58.9452 90.752 0
 893 1 63.8573 85.08 0
 894 1 61.4012 86.498 0
 895 1 61.4012 89.334 0
 896 1 63.8573 90.752 0
 897 1 68.7693 85.08 0
 898 1 66.3133 86.498 0
 899 1 66.3133 89.334 0
 900 1 68.7693 90.752 0
 901 1 73.6814 85.08 0
 902 1 71.2254 86.498 0
 903 1 71.2254 89.334 0
 904 1 73.6814 90.752 0
 905 1 78.5935 85.08 0
 906 1 76.1375 86.498 0
 907 1 76.1375 89.334 0
 908 1 78.5935 90.752 0
 909 1 83.5056 85.08 0
 910 1 81.0496 86.498 0
 911 1 81.0496 89.334 0
 912 1 83.5056 90.752 0
 913 1 88.4177 85.08 0
 914 1 85.9617 86.498 0
 915 1 85.9617 89.334 0
 916 1 88.4177 90.752 0
 917 1 93.3298 85.08 0
 918 1 90.8738 86.498 0
 919 1 90.8738 89.334 0
 920 1 93.3298 90.752 0
 921 1 98.2419 85.08 0
 922 1 95.7859 86.498 0
 923 1 95.7859 89.334 0
 924 1 98.2419 90.752 0
 925 1 0 93.588 0
 926 1 -2.45605 95.006 0
 927 1 -2.45605 97.842 0
 928 1 0 99.26 0
 929 1 4.9121 93.588 0
 930 1 2.45605 95.006 0
 931 1 2.45605 97.842 0
 932 1 4.9121 99.26 0
 933 1 9.82419 93.588 0
 934 1 7.36814 95.006 0
 935 1 7.36814 97.842 0
 936 1 9.82419 99.26 0
 937 1 14.7363 93.588 0
 938 1 12.2802 95.006 0
 939 1 12.2802 97.842 0
 940 1 14.7363 99.26 0
 941 1 19.6484 93.588 0
 942 1 17.1923 95.006 0
 943 1 17.1923 97.842 0
 944 1 19.6484 99.26 0
 945 1 24.5605 93.588 0
 946 1 22.1044 95.006 0
 947 1 22.1044 97.842 0
 948 1 24.5605 99.26 0
 949 1 29.4726 93.588 0
 950 1 27.0165 95.006 0
 951 1 27.0165 97.842 0
 952 1 29.4726 99.26 0
 953 1 34.3847 93.588 0
 954 1 31.9286 95.006 0
 955 1 31.9286 97.842 0
 956 1 34.3847 99.26 0
 957 1 39.2968 93.588 0
 958 1 36.8407 95.006 0
 959 1 36.8407 97.842 0
 960 1 39.2968 99.26 0
 961 1 44.2089 93.588 0
 962 1 41.7528 95.006 0
 963 1 41.7528 97.842 0
 964 1 44.2089 99.26 0
 965 1 49.121 93.588 0
 966 1 46.6649 95.006 0
 967 1 46.6649 97.842 0
 968 1 49.121 99.26 0
 969 1 54.0331 93.588 0
 970 1 51.577 95.006 0
 971 1 51.577 97.842 0
 972 1 54.0331 99.26 0
 973 1 58.9452 93.588 0
 974 1 56.4891 95.006 0
 975 1 56.4891 97.842 0
 976 1 58.9452 99.26 0
 977 1 63.8573 93.588 0
 978 1 61.4012 95.006 0
 979 1 61.4012 97.842 0
 980 1 63.8573 99.26 0
 981 1 68.7693 93.588 0
 982 1 66.3133 95.006 0
 983 1 66.3133 97.842 0
 984 1 68.7693 99.26 0
 985 1 73.6814 93.588 0
 986 1 71.2254 95.006 0
 987 1 71.2254 97.842 0
 988 1 73.6814 99.26 0
 989 1 78.5935 93.588 0
 990 1 76.1375 95.006 0
 991 1 76.1375 97.842 0
 992 1 78.5935 99.26 0
 993 1 83.5056 93.588 0
 994 1 81.0496 95.006 0
 995 1 81.0496 97.842 0
 996 1 83.5056 99.26 0
 997 1 88.4177 93.588 0
 998 1 85.9617 95.006 0
 999 1 85.9617 97.842 0
 1000 1 88.4177 99.26 0
 1001 1 93.3298 93.588 0
 1002 1 90.8738 95.006 0
 1003 1 90.8738 97.842 0
 1004 1 93.3298 99.26 0
 1005 1 98.2419 93.588 0
 1006 1 95.7859 95.006 0
 1007 1 95.7859 97.842 0
 1008 1 98.2419 99.26 0
 1009 1 0 102.096 0
 1010 1 -2.45605 103.514 0
 1011 1 -2.45605 106.35 0
 1012 1 0 107.768 0
 1013 1 4.9121 102.096 0
 1014 1 2.45605 103.514 0
 1015 1 2.45605 106.35 0
 1016 1 4.9121 107.768 0
 1017 1 9.82419 102.096 0
 1018 1 7.36814 103.514 0
 1019 1 7.36814 106.35 0
 1020 1 9.82419 107.768 0
 1021 1 14.7363 102.096 0
 1022 1 12.2802 103.514 0
 1023 1 12.2802 106.35 0
 1024 1 14.7363 107.768 0
 1025 1 19.6484 102.096 0
 1026 1 17.1923 103.514 0
 1027 1 17.1923 106.35 0
 1028 1 19.6484 107.768 0
 1029 1 24.5605 102.096 0
 1030 1 22.1044 103.514 0
 1031 1 22.1044 106.35 0
 1032 1 24.5605 107.768 0
 1033 1 29.4726 102.096 0
 1034 1 27.0165 103.514 0
 1035 1 27.0165 106.35 0
 1036 1 29.4726 107.768 0
 1037 1 34.3847 102.096 0
 1038 1 31.9286 103.514 0
 1039 1 31.9286 106.35 0
 1040 1 34.3847 107.768 0
 1041 1 39.2968 102.096 0
 1042 1 36.8407 103.514 0
 1043 1 36.8407 106.35 0
 1044 1 39.2968 107.768 0
 1045 1 44.2089 102.096 0
 1046 1 41.7528 103.514 0
 1047 1 41.7528 106.35 0
 1048 1 44.2089 107.768 0
 1049 1 49.121 102.096 0
 1050 1 46.6649 103.514 0
 1051 1 46.6649 106.35 0
 1052 1 49.121 107.768 0
 1053 1 54.0331 102.096 0
 1054 1 51.577 103.514 0
 1055 1 51.577 106.35 0
 1056 1 54.0331 107.768 0
 1057 1 58.9452 102.096 0
 1058 1 56.4891 103.514 0
 1059 1 56.4891 106.35 0
 1060 1 58.9452 107.768 0
 1061 1 63.8573 102.096 0
 1062 1 61.4012 103.514 0
 1063 1 61.4012 106.35 0
 1064 1 63.8573 107.768 0
 1065 1 68.7693 102.096 0
 1066 1 66.3133 103.514 0
 1067 1 66.3133 106.35 0
 1068 1 68.7693 107.768 0
 1069 1 73.6814 102.096 0
 1070 1 71.2254 103.514 0
 1071 1 71.2254 106.35 0
 1072 1 73.6814 107.768 0
 1073 1 78.5935 102.096 0
 1074 1 76.1375 103.514 0
 1075 1 76.1375 106.35 0
 1076 1 78.5935 107.768 0
 1077 1 83.5056 102.096 0
 1078 1 81.0496 103.514 0
 1079 1 81.0496 106.35 0
 1080 1 83.5056 107.768 0
 1081 1 88.4177 102.096 0
 1082 1 85.9617 103.514 0
 1083 1 85.9617 106.35 0
 1084 1 88.4177 107.768 0
 1085 1 93.3298 102.096 0
 1086 1 90.8738 103.514 0
 1087 1 90.8738 106.35 0
 1088 1 93.3298 107.768 0
 1089 1 98.2419 102.096 0
 1090 1 95.7859 103.514 0
 1091 1 95.7859 106.35 0
 1092 1 98.2419 107.768 0
 1093 1 0 110.604 0
 1094 1 -2.45605 112.022 0
 1095 1 -2.45605 114.858 0
 1096 1 0 116.276 0
 1097 1 4.9121 110.604 0
 1098 1 2.45605 112.022 0
 1099 1 2.45605 114.858 0
 1100 1 4.9121 116.276 0
 1101 1 9.82419 110.604 0
 1102 1 7.36814 112.022 0
 1103 1 7.36814 114.858 0
 1104 1 9.82419 116.276 0
 1105 1 14.7363 110.604 0
 1106 1 12.2802 112.022 0
 1107 1 12.2802 114.858 0
 1108 1 14.7363 116.276 0
 1109 1 19.6484 110.604 0
 1110 1 17.1923 112.022 0
 1111 1 17.1923 114.858 0
 1112 1 19.6484 116.276 0
 1113 1 24.5605 110.604 0
 1114 1 22.1044 112.022 0
 1115 1 22.1044 114.858 0
 1116 1 24.5605 116.276 0
 1117 1 29.4726 110.604 0
 1118 1 27.0165 112.022 0
 1119 1 27.0165 114.858 0
 1120 1 29.4726 116.276 0
 1121 1 34.3847 110.604 0
 1122 1 31.9286 112.022 0
 1123 1 31.9286 114.858 0
 1124 1 34.3847 116.276 0
 1125 1 39.2968 110.604 0
 1126 1 36.8407 112.022 0
 1127 1 36.8407 114.858 0
 1128 1 39.2968 116.276 0
 1129 1 44.2089 110.604 0
 1130 1 41.7528 112.022 0
 1131 1 41.7528 114.858 0
 1132 1 44.2089 116.276 0
 1133 1 49.121 110.604 0
 1134 1 46.6649 112.022 0
 1135 1 46.6649 114.858 0
 1136 1 49.121 116.276 0
 1137 1 54.0331 110.604 0
 1138 1 51.577 112.022 0
 1139 1 51.577 114.858 0
 1140 1 54.0331 116.276 0
 1141 1 58.9452 110.604 0
 1142 1 56.4891 112.022 0
 1143 1 56.4891 114.858 0
 1144 1 58.9452 116.276 0
 1145 1 63.8573 110.604 0
 1146 1 61.4012 112.022 0
 1147 1 61.4012 114.858 0
 1148 1 63.8573 116.276 0
 1149 1 68.7693 110.604 0
 1150 1 66.3133 112.022 0
 1151 1 66.3133 114.858 0
 1152 1 68.7693 116.276 0
 1153 1 73.6814 110.604 0
 1154 1 71.2254 112.022 0
 1155 1 71.2254 114.858 0
 1156 1 73.6814 116.276 0
 1157 1 78.5935 110.604 0
 1158 1 76.1375 112.022 0
 1159 1 76.1375 114.858 0
 1160 1 78.5935 116.276 0
 1161 1 83.5056 110.604 0
 1162 1 81.0496 112.022 0
 1163 1 81.0496 114.858 0
 1164 1 83.5056 116.276 0
 1165 1 88.4177 110.604 0
 1166 1 85.9617 112.022 0
 1167 1 85.9617 114.858 0
 1168 1 88.4177 116.276 0
 1169 1 93.3298 110.604 0
 1170 1 90.8738 112.022 0
 1171 1 90.8738 114.858 0
 1172 1 93.3298 116.276 0
 1173 1 98.2419 110.604 0
 1174 1 95.7859 112.022 0
 1175 1 95.7859 114.858 0
 1176 1 98.2419 116.276 0
 1177 1 0 119.112 0
 1178 1 -2.45605 120.53 0
 1179 1 -2.45605 123.366 0
 1180 1 0 124.784 0
 1181 1 4.9121 119.112 0
 1182 1 2.45605 120.53 0
 1183 1 2.45605 123.366 0
 1184 1 4.9121 124.784 0
 1185 1 9.82419 119.112 0
 1186 1 7.36814 120.53 0
 1187 1 7.36814 123.366 0
 1188 1 9.82419 124.784 0
 1189 1 14.7363 119.112 0
 1190 1 12.2802 120.53 0
 1191 1 12.2802 123.366 0
 1192 1 14.7363 124.784 0
 1193 1 19.6484 119.112 0
 1194 1 17.1923 120.53 0
 1195 1 17.1923 123.366 0
 1196 1 19.6484 124.784 0
 1197 1 24.5605 119.112 0
 1198 1 22.1044 120.53 0
 1199 1 22.1044 123.366 0
 1200 1 24.5605 124.784 0
 1201 1 29.4726 119.112 0
 1202 1 27.0165 120.53 0
 1203 1 27.0165 123.366 0
 1204 1 29.4726 124.784 0
 1205 1 34.3847 119.112 0
 1206 1 31.9286 120.53 0
 1207 1 31.9286 123.366 0
 1208 1 34.3847 124.784 0
 1209 1 39.2968 119.112 0
 1210 1 36.8407 120.53 0
 1211 1 36.8407 123.366 0
 1212 1 39.2968 124.784 0
 1213 1 44.2089 119.112 0
 1214 1 41.7528 120.53 0
 1215 1 41.7528 123.366 0
 1216 1 44.2089 124.784 0
 1217 1 49.121 119.112 0
 1218 1 46.6649 120.53 0
 1219 1 46.6649 123.366 0
 1220 1 49.121 124.784 0
 1221 1 54.0331 119.112 0
 1222 1 51.577 120.53 0
 1223 1 51.577 123.366 0
 1224 1 54.0331 124.784 0
 1225 1 58.9452 119.112 0
 1226 1 56.4891 120.53 0
 1227 1 56.4891 123.366 0
 1228 1 58.9452 124.784 0
 1229 1 63.8573 119.112 0
 1230 1 61.4012 120.53 0
 1231 1 61.4012 123.366 0
 1232 1 63.8573 124.784 0
 1233 1 68.7693 119.112 0
 1234 1 66.3133 120.53 0
 1235 1 66.3133 123.366 0
 1236 1 68.7693 124.784 0
 1237 1 73.6814 119.112 0
 1238 1 71.2254 120.53 0
 1239 1 71.2254 123.366 0
 1240 1 73.6814 124.784 0
 1241 1 78.5935 119.112 0
 1242 1 76.1375 120.53 0
 1243 1 76.1375 123.366 0
 1244 1 78.5935 124.784 0
 1245 1 83.5056 119.112 0
 1246 1 81.0496 120.53 0
 1247 1 81.0496 123.366 0
 1248 1 83.5056 124.784 0
 1249 1 88.4177 119.112 0
 1250 1 85.9617 120.53 0
 1251 1 85.9617 123.366 0
 1252 1 88.4177 124.784 0
 1253 1 93.3298 119.112 0
 1254 1 90.8738 120.53 0
 1255 1 90.8738 123.366 0
 1256 1 93.3298 124.784 0