ITEM: TIMESTEP
0
ITEM: NUMBER OF ATOMS
4960
ITEM: BOX BOUNDS pp pp pp
-50 50
-50 50
-1.22803 303.322
ITEM: ATOMS id type xu yu zu
 1 1 27.0911 0 0
 2 1 26.9427 2.83179 0
 3 1 26.7576 4.23798 2.45605
 4 1 26.168 7.01169 2.45605
 5 1 25.7652 8.37161 0
 6 1 24.7489 11.0189 0
 7 1 24.1383 12.2991 2.45605
 8 1 22.7205 14.7549 2.45605
 9 1 21.9172 15.9237 0
 10 1 20.1326 18.1275 0
 11 1 19.1563 19.1563 2.45605
 12 1 17.049 21.0537 2.45605
 13 1 15.9237 21.9172 0
 14 1 13.5455 23.4616 0
 15 1 12.2991 24.1383 2.45605
 16 1 9.70858 25.2917 2.45605
 17 1 8.37161 25.7652 0
 18 1 5.63255 26.4991 0
 19 1 4.23798 26.7576 2.45605
 20 1 1.41784 27.054 2.45605
 21 1 7.67423e-015 27.0911 0
 22 1 -2.83179 26.9427 0
 23 1 -4.23798 26.7576 2.45605
 24 1 -7.01169 26.168 2.45605
 25 1 -8.37161 25.7652 0
 26 1 -11.0189 24.7489 0
 27 1 -12.2991 24.1383 2.45605
 28 1 -14.7549 22.7205 2.45605
 29 1 -15.9237 21.9172 0
 30 1 -18.1275 20.1326 0
 31 1 -19.1563 19.1563 2.45605
 32 1 -21.0537 17.049 2.45605
 33 1 -21.9172 15.9237 0
 34 1 -23.4616 13.5455 0
 35 1 -24.1383 12.2991 2.45605
 36 1 -25.2917 9.70858 2.45605
 37 1 -25.7652 8.37161 0
 38 1 -26.4991 5.63255 0
 39 1 -26.7576 4.23798 2.45605
 40 1 -27.054 1.41784 2.45605
 41 1 -27.0911 1.53485e-014 0
 42 1 -26.9427 -2.83179 0
 43 1 -26.7576 -4.23798 2.45605
 44 1 -26.168 -7.01169 2.45605
 45 1 -25.7652 -8.37161 0
 46 1 -24.7489 -11.0189 0
 47 1 -24.1383 -12.2991 2.45605
 48 1 -22.7205 -14.7549 2.45605
 49 1 -21.9172 -15.9237 0
 50 1 -20.1326 -18.1275 0
 51 1 -19.1563 -19.1563 2.45605
 52 1 -17.049 -21.0537 2.45605
 53 1 -15.9237 -21.9172 0
 54 1 -13.5455 -23.4616 0
 55 1 -12.2991 -24.1383 2.45605
 56 1 -9.70858 -25.2917 2.45605
 57 1 -8.37161 -25.7652 0
 58 1 -5.63255 -26.4991 0
 59 1 -4.23798 -26.7576 2.45605
 60 1 -1.41784 -27.054 2.45605
 61 1 -2.90381e-014 -27.0911 0
 62 1 2.83179 -26.9427 0
 63 1 4.23798 -26.7576 2.45605
 64 1 7.01169 -26.168 2.45605
 65 1 8.37161 -25.7652 0
 66 1 11.0189 -24.7489 0
 67 1 12.2991 -24.1383 2.45605
 68 1 14.7549 -22.7205 2.45605
 69 1 15.9237 -21.9172 0
 70 1 18.1275 -20.1326 0
 71 1 19.1563 -19.1563 2.45605
 72 1 21.0537 -17.049 2.45605
 73 1 21.9172 -15.9237 0
 74 1 23.4616 -13.5455 0
 75 1 24.1383 -12.2991 2.45605
 76 1 25.2917 -9.70858 2.45605
 77 1 25.7652 -8.37161 0
 78 1 26.4991 -5.63255 0
 79 1 26.7576 -4.23798 2.45605
 80 1 27.054 -1.41784 2.45605
 81 1 27.0911 0 4.9121
 82 1 26.9427 2.83179 4.9121
 83 1 26.7576 4.23798 7.36814
 84 1 26.168 7.01169 7.36814
 85 1 25.7652 8.37161 4.9121
 86 1 24.7489 11.0189 4.9121
 87 1 24.1383 12.2991 7.36814
 88 1 22.7205 14.7549 7.36814
 89 1 21.9172 15.9237 4.9121
 90 1 20.1326 18.1275 4.9121
 91 1 19.1563 19.1563 7.36814
 92 1 17.049 21.0537 7.36814
 93 1 15.9237 21.9172 4.9121
 94 1 13.5455 23.4616 4.9121
 95 1 12.2991 24.1383 7.36814
 96 1 9.70858 25.2917 7.36814
 97 1 8.37161 25.7652 4.9121
 98 1 5.63255 26.4991 4.9121
 99 1 4.23798 26.7576 7.36814
 100 1 1.41784 27.054 7.36814
 101 1 7.67423e-015 27.0911 4.9121
 102 1 -2.83179 26.9427 4.9121
 103 1 -4.23798 26.7576 7.36814
 104 1 -7.01169 26.168 7.36814
 105 1 -8.37161 25.7652 4.9121
 106 1 -11.0189 24.7489 4.9121
 107 1 -12.2991 24.1383 7.36814
 108 1 -14.7549 22.7205 7.36814
 109 1 -15.9237 21.9172 4.9121
 110 1 -18.1275 20.1326 4.9121
 111 1 -19.1563 19.1563 7.36814
 112 1 -21.0537 17.049 7.36814
 113 1 -21.9172 15.9237 4.9121
 114 1 -23.4616 13.5455 4.9121
 115 1 -24.1383 12.2991 7.36814
 116 1 -25.2917 9.70858 7.36814
 117 1 -25.7652 8.37161 4.9121
 118 1 -26.4991 5.63255 4.9121
 119 1 -26.7576 4.23798 7.36814
 120 1 -27.054 1.41784 7.36814
 121 1 -27.0911 1.53485e-014 4.9121
 122 1 -26.9427 -2.83179 4.9121
 123 1 -26.7576 -4.23798 7.36814
 124 1 -26.168 -7.01169 7.36814
 125 1 -25.7652 -8.37161 4.9121
 126 1 -24.7489 -11.0189 4.9121
 127 1 -24.1383 -12.2991 7.36814
 128 1 -22.7205 -14.7549 7.36814
 129 1 -21.9172 -15.9237 4.9121
 130 1 -20.1326 -18.1275 4.9121
 131 1 -19.1563 -19.1563 7.36814
 132 1 -17.049 -21.0537 7.36814
 133 1 -15.9237 -21.9172 4.9121
 134 1 -13.5455 -23.4616 4.9121
 135 1 -12.2991 -24.1383 7.36814
 136 1 -9.70858 -25.2917 7.36814
 137 1 -8.37161 -25.7652 4.9121
 138 1 -5.63255 -26.4991 4.9121
 139 1 -4.23798 -26.7576 7.36814
 140 1 -1.41784 -27.054 7.36814
 141 1 -2.90381e-014 -27.0911 4.9121
 142 1 2.83179 -26.9427 4.9121
 143 1 4.23798 -26.7576 7.36814
 144 1 7.01169 -26.168 7.36814
 145 1 8.37161 -25.7652 4.9121
 146 1 11.0189 -24.7489 4.9121
 147 1 12.2991 -24.1383 7.36814
 148 1 14.7549 -22.7205 7.36814
 149 1 15.9237 -21.9172 4.9121
 150 1 18.1275 -20.1326 4.9121
 151 1 19.1563 -19.1563 7.36814
 152 1 21.0537 -17.049 7.36814
 153 1 21.9172 -15.9237 4.9121
 154 1 23.4616 -13.5455 4.9121
 155 1 24.1383 -12.2991 7.36814
 156 1 25.2917 -9.70858 7.36814
 157 1 25.7652 -8.37161 4.9121
 158 1 26.4991 -5.63255 4.9121
 159 1 26.7576 -4.23798 7.36814
 160 1 27.054 -1.41784 7.36814
 161 1 27.0911 0 9.82419
 162 1 26.9427 2.83179 9.82419
 163 1 26.7576 4.23798 12.2802
 164 1 26.168 7.01169 12.2802
 165 1 25.7652 8.37161 9.82419
 166 1 24.7489 11.0189 9.82419
 167 1 24.1383 12.2991 12.2802
 168 1 22.7205 14.7549 12.2802
 169 1 21.9172 15.9237 9.82419
 170 1 20.1326 18.1275 9.82419
 171 1 19.1563 19.1563 12.2802
 172 1 17.049 21.0537 12.2802
 173 1 15.9237 21.9172 9.82419
 174 1 13.5455 23.4616 9.82419
 175 1 12.2991 24.1383 12.2802
 176 1 9.70858 25.2917 12.2802
 177 1 8.37161 25.7652 9.82419
 178 1 5.63255 26.4991 9.82419
 179 1 4.23798 26.7576 12.2802
 180 1 1.41784 27.054 12.2802
 181 1 7.67423e-015 27.0911 9.82419
 182 1 -2.83179 26.9427 9.82419
 183 1 -4.23798 26.7576 12.2802
 184 1 -7.01169 26.168 12.2802
 185 1 -8.37161 25.7652 9.82419
 186 1 -11.0189 24.7489 9.82419
 187 1 -12.2991 24.1383 12.2802
 188 1 -14.7549 22.7205 12.2802
 189 1 -15.9237 21.9172 9.82419
 190 1 -18.1275 20.1326 9.82419
 191 1 -19.1563 19.1563 12.2802
 192 1 -21.0537 17.049 12.2802
 193 1 -21.9172 15.9237 9.82419
 194 1 -23.4616 13.5455 9.82419
 195 1 -24.1383 12.2991 12.2802
 196 1 -25.2917 9.70858 12.2802
 197 1 -25.7652 8.37161 9.82419
 198 1 -26.4991 5.63255 9.82419
 199 1 -26.7576 4.23798 12.2802
 200 1 -27.054 1.41784 12.2802
 201 1 -27.0911 1.53485e-014 9.82419
 202 1 -26.9427 -2.83179 9.82419
 203 1 -26.7576 -4.23798 12.2802
 204 1 -26.168 -7.01169 12.2802
 205 1 -25.7652 -8.37161 9.82419
 206 1 -24.7489 -11.0189 9.82419
 207 1 -24.1383 -12.2991 12.2802
 208 1 -22.7205 -14.7549 12.2802
 209 1 -21.9172 -15.9237 9.82419
 210 1 -20.1326 -18.1275 9.82419
 211 1 -19.1563 -19.1563 12.2802
 212 1 -17.049 -21.0537 12.2802
 213 1 -15.9237 -21.9172 9.82419
 214 1 -13.5455 -23.4616 9.82419
 215 1 -12.2991 -24.1383 12.2802
 216 1 -9.70858 -25.2917 12.2802
 217 1 -8.37161 -25.7652 9.82419
 218 1 -5.63255 -26.4991 9.82419
 219 1 -4.23798 -26.7576 12.2802
 220 1 -1.41784 -27.054 12.2802
 221 1 -2.90381e-014 -27.0911 9.82419
 222 1 2.83179 -26.9427 9.82419
 223 1 4.23798 -26.7576 12.2802
 224 1 7.01169 -26.168 12.2802
 225 1 8.37161 -25.7652 9.82419
 226 1 11.0189 -24.7489 9.82419
 227 1 12.2991 -24.1383 12.2802
 228 1 14.7549 -22.7205 12.2802
 229 1 15.9237 -21.9172 9.82419
 230 1 18.1275 -20.1326 9.82419
 231 1 19.1563 -19.1563 12.2802
 232 1 21.0537 -17.049 12.2802
 233 1 21.9172 -15.9237 9.82419
 234 1 23.4616 -13.5455 9.82419
 235 1 24.1383 -12.2991 12.2802
 236 1 25.2917 -9.70858 12.2802
 237 1 25.7652 -8.37161 9.82419
 238 1 26.4991 -5.63255 9.82419
 239 1 26.7576 -4.23798 12.2802
 240 1 27.054 -1.41784 12.2802
 241 1 27.0911 0 14.7363
 242 1 26.9427 2.83179 14.7363
 243 1 26.7576 4.23798 17.1923
 244 1 26.168 7.01169 17.1923
 245 1 25.7652 8.37161 14.7363
 246 1 24.7489 11.0189 14.7363
 247 1 24.1383 12.2991 17.1923
 248 1 22.7205 14.7549 17.1923
 249 1 21.9172 15.9237 14.7363
 250 1 20.1326 18.1275 14.7363
 251 1 19.1563 19.1563 17.1923
 252 1 17.049 21.0537 17.1923
 253 1 15.9237 21.9172 14.7363
 254 1 13.5455 23.4616 14.7363
 255 1 12.2991 24.1383 17.1923
 256 1 9.70858 25.2917 17.1923
 257 1 8.37161 25.7652 14.7363
 258 1 5.63255 26.4991 14.7363
 259 1 4.23798 26.7576 17.1923
 260 1 1.41784 27.054 17.1923
 261 1 7.67423e-015 27.0911 14.7363
 262 1 -2.83179 26.9427 14.7363
 263 1 -4.23798 26.7576 17.1923
 264 1 -7.01169 26.168 17.1923
 265 1 -8.37161 25.7652 14.7363
 266 1 -11.0189 24.7489 14.7363
 267 1 -12.2991 24.1383 17.1923
 268 1 -14.7549 22.7205 17.1923
 269 1 -15.9237 21.9172 14.7363
 270 1 -18.1275 20.1326 14.7363
 271 1 -19.1563 19.1563 17.1923
 272 1 -21.0537 17.049 17.1923
 273 1 -21.9172 15.9237 14.7363
 274 1 -23.4616 13.5455 14.7363
 275 1 -24.1383 12.2991 17.1923
 276 1 -25.2917 9.70858 17.1923
 277 1 -25.7652 8.37161 14.7363
 278 1 -26.4991 5.63255 14.7363
 279 1 -26.7576 4.23798 17.1923
 280 1 -27.054 1.41784 17.1923
 281 1 -27.0911 1.53485e-014 14.7363
 282 1 -26.9427 -2.83179 14.7363
 283 1 -26.7576 -4.23798 17.1923
 284 1 -26.168 -7.01169 17.1923
 285 1 -25.7652 -8.37161 14.7363
 286 1 -24.7489 -11.0189 14.7363
 287 1 -24.1383 -12.2991 17.1923
 288 1 -22.7205 -14.7549 17.1923
 289 1 -21.9172 -15.9237 14.7363
 290 1 -20.1326 -18.1275 14.7363
 291 1 -19.1563 -19.1563 17.1923
 292 1 -17.049 -21.0537 17.1923
 293 1 -15.9237 -21.9172 14.7363
 294 1 -13.5455 -23.4616 14.7363
 295 1 -12.2991 -24.1383 17.1923
 296 1 -9.70858 -25.2917 17.1923
 297 1 -8.37161 -25.7652 14.7363
 298 1 -5.63255 -26.4991 14.7363
 299 1 -4.23798 -26.7576 17.1923
 300 1 -1.41784 -27.054 17.1923
 301 1 -2.90381e-014 -27.0911 14.7363
 302 1 2.83179 -26.9427 14.7363
 303 1 4.23798 -26.7576 17.1923
 304 1 7.01169 -26.168 17.1923
 305 1 8.37161 -25.7652 14.7363
 306 1 11.0189 -24.7489 14.7363
 307 1 12.2991 -24.1383 17.1923
 308 1 14.7549 -22.7205 17.1923
 309 1 15.9237 -21.9172 14.7363
 310 1 18.1275 -20.1326 14.7363
 311 1 19.1563 -19.1563 17.1923
 312 1 21.0537 -17.049 17.1923
 313 1 21.9172 -15.9237 14.7363
 314 1 23.4616 -13.5455 14.7363
 315 1 24.1383 -12.2991 17.1923
 316 1 25.2917 -9.70858 17.1923
 317 1 25.7652 -8.37161 14.7363
 318 1 26.4991 -5.63255 14.7363
 319 1 26.7576 -4.23798 17.1923
 320 1 27.054 -1.41784 17.1923
 321 1 27.0911 0 19.6484
 322 1 26.9427 2.83179 19.6484
 323 1 26.7576 4.23798 22.1044
 324 1 26.168 7.01169 22.1044
 325 1 25.7652 8.37161 19.6484
 326 1 24.7489 11.0189 19.6484
 327 1 24.1383 12.2991 22.1044
 328 1 22.7205 14.7549 22.1044
 329 1 21.9172 15.9237 19.6484
 330 1 20.1326 18.1275 19.6484
 331 1 19.1563 19.1563 22.1044
 332 1 17.049 21.0537 22.1044
 333 1 15.9237 21.9172 19.6484
 334 1 13.5455 23.4616 19.6484
 335 1 12.2991 24.1383 22.1044
 336 1 9.70858 25.2917 22.1044
 337 1 8.37161 25.7652 19.6484
 338 1 5.63255 26.4991 19.6484
 339 1 4.23798 26.7576 22.1044
 340 1 1.41784 27.054 22.1044
 341 1 7.67423e-015 27.0911 19.6484
 342 1 -2.83179 26.9427 19.6484
 343 1 -4.23798 26.7576 22.1044
 344 1 -7.01169 26.168 22.1044
 345 1 -8.37161 25.7652 19.6484
 346 1 -11.0189 24.7489 19.6484
 347 1 -12.2991 24.1383 22.1044
 348 1 -14.7549 22.7205 22.1044
 349 1 -15.9237 21.9172 19.6484
 350 1 -18.1275 20.1326 19.6484
 351 1 -19.1563 19.1563 22.1044
 352 1 -21.0537 17.049 22.1044
 353 1 -21.9172 15.9237 19.6484
 354 1 -23.4616 13.5455 19.6484
 355 1 -24.1383 12.2991 22.1044
 356 1 -25.2917 9.70858 22.1044
 357 1 -25.7652 8.37161 19.6484
 358 1 -26.4991 5.63255 19.6484
 359 1 -26.7576 4.23798 22.1044
 360 1 -27.054 1.41784 22.1044
 361 1 -27.0911 1.53485e-014 19.6484
 362 1 -26.9427 -2.83179 19.6484
 363 1 -26.7576 -4.23798 22.1044
 364 1 -26.168 -7.01169 22.1044
 365 1 -25.7652 -8.37161 19.6484
 366 1 -24.7489 -11.0189 19.6484
 367 1 -24.1383 -12.2991 22.1044
 368 1 -22.7205 -14.7549 22.1044
 369 1 -21.9172 -15.9237 19.6484
 370 1 -20.1326 -18.1275 19.6484
 371 1 -19.1563 -19.1563 22.1044
 372 1 -17.049 -21.0537 22.1044
 373 1 -15.9237 -21.9172 19.6484
 374 1 -13.5455 -23.4616 19.6484
 375 1 -12.2991 -24.1383 22.1044
 376 1 -9.70858 -25.2917 22.1044
 377 1 -8.37161 -25.7652 19.6484
 378 1 -5.63255 -26.4991 19.6484
 379 1 -4.23798 -26.7576 22.1044
 380 1 -1.41784 -27.054 22.1044
 381 1 -2.90381e-014 -27.0911 19.6484
 382 1 2.83179 -26.9427 19.6484
 383 1 4.23798 -26.7576 22.1044
 384 1 7.01169 -26.168 22.1044
 385 1 8.37161 -25.7652 19.6484
 386 1 11.0189 -24.7489 19.6484
 387 1 12.2991 -24.1383 22.1044
 388 1 14.7549 -22.7205 22.1044
 389 1 15.9237 -21.9172 19.6484
 390 1 18.1275 -20.1326 19.6484
 391 1 19.1563 -19.1563 22.1044
 392 1 21.0537 -17.049 22.1044
 393 1 21.9172 -15.9237 19.6484
 394 1 23.4616 -13.5455 19.6484
 395 1 24.1383 -12.2991 22.1044
 396 1 25.2917 -9.70858 22.1044
 397 1 25.7652 -8.37161 19.6484
 398 1 26.4991 -5.63255 19.6484
 399 1 26.7576 -4.23798 22.1044
 400 1 27.054 -1.41784 22.1044
 401 1 27.0911 0 24.5605
 402 1 26.9427 2.83179 24.5605
 403 1 26.7576 4.23798 27.0165
 404 1 26.168 7.01169 27.0165
 405 1 25.7652 8.37161 24.5605
 406 1 24.7489 11.0189 24.5605
 407 1 24.1383 12.2991 27.0165
 408 1 22.7205 14.7549 27.0165
 409 1 21.9172 15.9237 24.5605
 410 1 20.1326 18.1275 24.5605
 411 1 19.1563 19.1563 27.0165
 412 1 17.049 21.0537 27.0165
 413 1 15.9237 21.9172 24.5605
 414 1 13.5455 23.4616 24.5605
 415 1 12.2991 24.1383 27.0165
 416 1 9.70858 25.2917 27.0165
 417 1 8.37161 25.7652 24.5605
 418 1 5.63255 26.4991 24.5605
 419 1 4.23798 26.7576 27.0165
 420 1 1.41784 27.054 27.0165
 421 1 7.67423e-015 27.0911 24.5605
 422 1 -2.83179 26.9427 24.5605
 423 1 -4.23798 26.7576 27.0165
 424 1 -7.01169 26.168 27.0165
 425 1 -8.37161 25.7652 24.5605
 426 1 -11.0189 24.7489 24.5605
 427 1 -12.2991 24.1383 27.0165
 428 1 -14.7549 22.7205 27.0165
 429 1 -15.9237 21.9172 24.5605
 430 1 -18.1275 20.1326 24.5605
 431 1 -19.1563 19.1563 27.0165
 432 1 -21.0537 17.049 27.0165
 433 1 -21.9172 15.9237 24.5605
 434 1 -23.4616 13.5455 24.5605
 435 1 -24.1383 12.2991 27.0165
 436 1 -25.2917 9.70858 27.0165
 437 1 -25.7652 8.37161 24.5605
 438 1 -26.4991 5.63255 24.5605
 439 1 -26.7576 4.23798 27.0165
 440 1 -27.054 1.41784 27.0165
 441 1 -27.0911 1.53485e-014 24.5605
 442 1 -26.9427 -2.83179 24.5605
 443 1 -26.7576 -4.23798 27.0165
 444 1 -26.168 -7.01169 27.0165
 445 1 -25.7652 -8.37161 24.5605
 446 1 -24.7489 -11.0189 24.5605
 447 1 -24.1383 -12.2991 27.0165
 448 1 -22.7205 -14.7549 27.0165
 449 1 -21.9172 -15.9237 24.5605
 450 1 -20.1326 -18.1275 24.5605
 451 1 -19.1563 -19.1563 27.0165
 452 1 -17.049 -21.0537 27.0165
 453 1 -15.9237 -21.9172 24.5605
 454 1 -13.5455 -23.4616 24.5605
 455 1 -12.2991 -24.1383 27.0165
 456 1 -9.70858 -25.2917 27.0165
 457 1 -8.37161 -25.7652 24.5605
 458 1 -5.63255 -26.4991 24.5605
 459 1 -4.23798 -26.7576 27.0165
 460 1 -1.41784 -27.054 27.0165
 461 1 -2.90381e-014 -27.0911 24.5605
 462 1 2.83179 -26.9427 24.5605
 463 1 4.23798 -26.7576 27.0165
 464 1 7.01169 -26.168 27.0165
 465 1 8.37161 -25.7652 24.5605
 466 1 11.0189 -24.7489 24.5605
 467 1 12.2991 -24.1383 27.0165
 468 1 14.7549 -22.7205 27.0165
 469 1 15.9237 -21.9172 24.5605
 470 1 18.1275 -20.1326 24.5605
 471 1 19.1563 -19.1563 27.0165
 472 1 21.0537 -17.049 27.0165
 473 1 21.9172 -15.9237 24.5605
 474 1 23.4616 -13.5455 24.5605
 475 1 24.1383 -12.2991 27.0165
 476 1 25.2917 -9.70858 27.0165
 477 1 25.7652 -8.37161 24.5605
 478 1 26.4991 -5.63255 24.5605
 479 1 26.7576 -4.23798 27.0165
 480 1 27.054 -1.41784 27.0165
 481 1 27.0911 0 29.4726
 482 1 26.9427 2.83179 29.4726
 483 1 26.7576 4.23798 31.9286
 484 1 26.168 7.01169 31.9286
 485 1 25.7652 8.37161 29.4726
 486 1 24.7489 11.0189 29.4726
 487 1 24.1383 12.2991 31.9286
 488 1 22.7205 14.7549 31.9286
 489 1 21.9172 15.9237 29.4726
 490 1 20.1326 18.1275 29.4726
 491 1 19.1563 19.1563 31.9286
 492 1 17.049 21.0537 31.9286
 493 1 15.9237 21.9172 29.4726
 494 1 13.5455 23.4616 29.4726
 495 1 12.2991 24.1383 31.9286
 496 1 9.70858 25.2917 31.9286
 497 1 8.37161 25.7652 29.4726
 498 1 5.63255 26.4991 29.4726
 499 1 4.23798 26.7576 31.9286
 500 1 1.41784 27.054 31.9286
 501 1 7.67423e-015 27.0911 29.4726
 502 1 -2.83179 26.9427 29.4726
 503 1 -4.23798 26.7576 31.9286
 504 1 -7.01169 26.168 31.9286
 505 1 -8.37161 25.7652 29.4726
 506 1 -11.0189 24.7489 29.4726
 507 1 -12.2991 24.1383 31.9286
 508 1 -14.7549 22.7205 31.9286
 509 1 -15.9237 21.9172 29.4726
 510 1 -18.1275 20.1326 29.4726
 511 1 -19.1563 19.1563 31.9286
 512 1 -21.0537 17.049 31.9286
 513 1 -21.9172 15.9237 29.4726
 514 1 -23.4616 13.5455 29.4726
 515 1 -24.1383 12.2991 31.9286
 516 1 -25.2917 9.70858 31.9286
 517 1 -25.7652 8.37161 29.4726
 518 1 -26.4991 5.63255 29.4726
 519 1 -26.7576 4.23798 31.9286
 520 1 -27.054 1.41784 31.9286
 521 1 -27.0911 1.53485e-014 29.4726
 522 1 -26.9427 -2.83179 29.4726
 523 1 -26.7576 -4.23798 31.9286
 524 1 -26.168 -7.01169 31.9286
 525 1 -25.7652 -8.37161 29.4726
 526 1 -24.7489 -11.0189 29.4726
 527 1 -24.1383 -12.2991 31.9286
 528 1 -22.7205 -14.7549 31.9286
 529 1 -21.9172 -15.9237 29.4726
 530 1 -20.1326 -18.1275 29.4726
 531 1 -19.1563 -19.1563 31.9286
 532 1 -17.049 -21.0537 31.9286
 533 1 -15.9237 -21.9172 29.4726
 534 1 -13.5455 -23.4616 29.4726
 535 1 -12.2991 -24.1383 31.9286
 536 1 -9.70858 -25.2917 31.9286
 537 1 -8.37161 -25.7652 29.4726
 538 1 -5.63255 -26.4991 29.4726
 539 1 -4.23798 -26.7576 31.9286
 540 1 -1.41784 -27.054 31.9286
 541 1 -2.90381e-014 -27.0911 29.4726
 542 1 2.83179 -26.9427 29.4726
 543 1 4.23798 -26.7576 31.9286
 544 1 7.01169 -26.168 31.9286
 545 1 8.37161 -25.7652 29.4726
 546 1 11.0189 -24.7489 29.4726
 547 1 12.2991 -24.1383 31.9286
 548 1 14.7549 -22.7205 31.9286
 549 1 15.9237 -21.9172 29.4726
 550 1 18.1275 -20.1326 29.4726
 551 1 19.1563 -19.1563 31.9286
 552 1 21.0537 -17.049 31.9286
 553 1 21.9172 -15.9237 29.4726
 554 1 23.4616 -13.5455 29.4726
 555 1 24.1383 -12.2991 31.9286
 556 1 25.2917 -9.70858 31.9286
 557 1 25.7652 -8.37161 29.4726
 558 1 26.4991 -5.63255 29.4726
 559 1 26.7576 -4.23798 31.9286
 560 1 27.054 -1.41784 31.9286
 561 1 27.0911 0 34.3847
 562 1 26.9427 2.83179 34.3847
 563 1 26.7576 4.23798 36.8407
 564 1 26.168 7.01169 36.8407
 565 1 25.7652 8.37161 34.3847
 566 1 24.7489 11.0189 34.3847
 567 1 24.1383 12.2991 36.8407
 568 1 22.7205 14.7549 36.8407
 569 1 21.9172 15.9237 34.3847
 570 1 20.1326 18.1275 34.3847
 571 1 19.1563 19.1563 36.8407
 572 1 17.049 21.0537 36.8407
 573 1 15.9237 21.9172 34.3847
 574 1 13.5455 23.4616 34.3847
 575 1 12.2991 24.1383 36.8407
 576 1 9.70858 25.2917 36.8407
 577 1 8.37161 25.7652 34.3847
 578 1 5.63255 26.4991 34.3847
 579 1 4.23798 26.7576 36.8407
 580 1 1.41784 27.054 36.8407
 581 1 7.67423e-015 27.0911 34.3847
 582 1 -2.83179 26.9427 34.3847
 583 1 -4.23798 26.7576 36.8407
 584 1 -7.01169 26.168 36.8407
 585 1 -8.37161 25.7652 34.3847
 586 1 -11.0189 24.7489 34.3847
 587 1 -12.2991 24.1383 36.8407
 588 1 -14.7549 22.7205 36.8407
 589 1 -15.9237 21.9172 34.3847
 590 1 -18.1275 20.1326 34.3847
 591 1 -19.1563 19.1563 36.8407
 592 1 -21.0537 17.049 36.8407
 593 1 -21.9172 15.9237 34.3847
 594 1 -23.4616 13.5455 34.3847
 595 1 -24.1383 12.2991 36.8407
 596 1 -25.2917 9.70858 36.8407
 597 1 -25.7652 8.37161 34.3847
 598 1 -26.4991 5.63255 34.3847
 599 1 -26.7576 4.23798 36.8407
 600 1 -27.054 1.41784 36.8407
 601 1 -27.0911 1.53485e-014 34.3847
 602 1 -26.9427 -2.83179 34.3847
 603 1 -26.7576 -4.23798 36.8407
 604 1 -26.168 -7.01169 36.8407
 605 1 -25.7652 -8.37161 34.3847
 606 1 -24.7489 -11.0189 34.3847
 607 1 -24.1383 -12.2991 36.8407
 608 1 -22.7205 -14.7549 36.8407
 609 1 -21.9172 -15.9237 34.3847
 610 1 -20.1326 -18.1275 34.3847
 611 1 -19.1563 -19.1563 36.8407
 612 1 -17.049 -21.0537 36.8407
 613 1 -15.9237 -21.9172 34.3847
 614 1 -13.5455 -23.4616 34.3847
 615 1 -12.2991 -24.1383 36.8407
 616 1 -9.70858 -25.2917 36.8407
 617 1 -8.37161 -25.7652 34.3847
 618 1 -5.63255 -26.4991 34.3847
 619 1 -4.23798 -26.7576 36.8407
 620 1 -1.41784 -27.054 36.8407
 621 1 -2.90381e-014 -27.0911 34.3847
 622 1 2.83179 -26.9427 34.3847
 623 1 4.23798 -26.7576 36.8407
 624 1 7.01169 -26.168 36.8407
 625 1 8.37161 -25.7652 34.3847
 626 1 11.0189 -24.7489 34.3847
 627 1 12.2991 -24.1383 36.8407
 628 1 14.7549 -22.7205 36.8407
 629 1 15.9237 -21.9172 34.3847
 630 1 18.1275 -20.1326 34.3847
 631 1 19.1563 -19.1563 36.8407
 632 1 21.0537 -17.049 36.8407
 633 1 21.9172 -15.9237 34.3847
 634 1 23.4616 -13.5455 34.3847
 635 1 24.1383 -12.2991 36.8407
 636 1 25.2917 -9.70858 36.8407
 637 1 25.7652 -8.37161 34.3847
 638 1 26.4991 -5.63255 34.3847
 639 1 26.7576 -4.23798 36.8407
 640 1 27.054 -1.41784 36.8407
 641 1 27.0911 0 39.2968
 642 1 26.9427 2.83179 39.2968
 643 1 26.7576 4.23798 41.7528
 644 1 26.168 7.01169 41.7528
 645 1 25.7652 8.37161 39.2968
 646 1 24.7489 11.0189 39.2968
 647 1 24.1383 12.2991 41.7528
 648 1 22.7205 14.7549 41.7528
 649 1 21.9172 15.9237 39.2968
 650 1 20.1326 18.1275 39.2968
 651 1 19.1563 19.1563 41.7528
 652 1 17.049 21.0537 41.7528
 653 1 15.9237 21.9172 39.2968
 654 1 13.5455 23.4616 39.2968
 655 1 12.2991 24.1383 41.7528
 656 1 9.70858 25.2917 41.7528
 657 1 8.37161 25.7652 39.2968
 658 1 5.63255 26.4991 39.2968
 659 1 4.23798 26.7576 41.7528
 660 1 1.41784 27.054 41.7528
 661 1 7.67423e-015 27.0911 39.2968
 662 1 -2.83179 26.9427 39.2968
 663 1 -4.23798 26.7576 41.7528
 664 1 -7.01169 26.168 41.7528
 665 1 -8.37161 25.7652 39.2968
 666 1 -11.0189 24.7489 39.2968
 667 1 -12.2991 24.1383 41.7528
 668 1 -14.7549 22.7205 41.7528
 669 1 -15.9237 21.9172 39.2968
 670 1 -18.1275 20.1326 39.2968
 671 1 -19.1563 19.1563 41.7528
 672 1 -21.0537 17.049 41.7528
 673 1 -21.9172 15.9237 39.2968
 674 1 -23.4616 13.5455 39.2968
 675 1 -24.1383 12.2991 41.7528
 676 1 -25.2917 9.70858 41.7528
 677 1 -25.7652 8.37161 39.2968
 678 1 -26.4991 5.63255 39.2968
 679 1 -26.7576 4.23798 41.7528
 680 1 -27.054 1.41784 41.7528
 681 1 -27.0911 1.53485e-014 39.2968
 682 1 -26.9427 -2.83179 39.2968
 683 1 -26.7576 -4.23798 41.7528
 684 1 -26.168 -7.01169 41.7528
 685 1 -25.7652 -8.37161 39.2968
 686 1 -24.7489 -11.0189 39.2968
 687 1 -24.1383 -12.2991 41.7528
 688 1 -22.7205 -14.7549 41.7528
 689 1 -21.9172 -15.9237 39.2968
 690 1 -20.1326 -18.1275 39.2968
 691 1 -19.1563 -19.1563 41.7528
 692 1 -17.049 -21.0537 41.7528
 693 1 -15.9237 -21.9172 39.2968
 694 1 -13.5455 -23.4616 39.2968
 695 1 -12.2991 -24.1383 41.7528
 696 1 -9.70858 -25.2917 41.7528
 697 1 -8.37161 -25.7652 39.2968
 698 1 -5.63255 -26.4991 39.2968
 699 1 -4.23798 -26.7576 41.7528
 700 1 -1.41784 -27.054 41.7528
 701 1 -2.90381e-014 -27.0911 39.2968
 702 1 2.83179 -26.9427 39.2968
 703 1 4.23798 -26.7576 41.7528
 704 1 7.01169 -26.168 41.7528
 705 1 8.37161 -25.7652 39.2968
 706 1 11.0189 -24.7489 39.2968
 707 1 12.2991 -24.1383 41.7528
 708 1 14.7549 -22.7205 41.7528
 709 1 15.9237 -21.9172 39.2968
 710 1 18.1275 -20.1326 39.2968
 711 1 19.1563 -19.1563 41.7528
 712 1 21.0537 -17.049 41.7528
 713 1 21.9172 -15.9237 39.2968
 714 1 23.4616 -13.5455 39.2968
 715 1 24.1383 -12.2991 41.7528
 716 1 25.2917 -9.70858 41.7528
 717 1 25.7652 -8.37161 39.2968
 718 1 26.4991 -5.63255 39.2968
 719 1 26.7576 -4.23798 41.7528
 720 1 27.054 -1.41784 41.7528
 721 1 27.0911 0 44.2089
 722 1 26.9427 2.83179 44.2089
 723 1 26.7576 4.23798 46.6649
 724 1 26.168 7.01169 46.6649
 725 1 25.7652 8.37161 44.2089
 726 1 24.7489 11.0189 44.2089
 727 1 24.1383 12.2991 46.6649
 728 1 22.7205 14.7549 46.6649
 729 1 21.9172 15.9237 44.2089
 730 1 20.1326 18.1275 44.2089
 731 1 19.1563 19.1563 46.6649
 732 1 17.049 21.0537 46.6649
 733 1 15.9237 21.9172 44.2089
 734 1 13.5455 23.4616 44.2089
 735 1 12.2991 24.1383 46.6649
 736 1 9.70858 25.2917 46.6649
 737 1 8.37161 25.7652 44.2089
 738 1 5.63255 26.4991 44.2089
 739 1 4.23798 26.7576 46.6649
 740 1 1.41784 27.054 46.6649
 741 1 7.67423e-015 27.0911 44.2089
 742 1 -2.83179 26.9427 44.2089
 743 1 -4.23798 26.7576 46.6649
 744 1 -7.01169 26.168 46.6649
 745 1 -8.37161 25.7652 44.2089
 746 1 -11.0189 24.7489 44.2089
 747 1 -12.2991 24.1383 46.6649
 748 1 -14.7549 22.7205 46.6649
 749 1 -15.9237 21.9172 44.2089
 750 1 -18.1275 20.1326 44.2089
 751 1 -19.1563 19.1563 46.6649
 752 1 -21.0537 17.049 46.6649
 753 1 -21.9172 15.9237 44.2089
 754 1 -23.4616 13.5455 44.2089
 755 1 -24.1383 12.2991 46.6649
 756 1 -25.2917 9.70858 46.6649
 757 1 -25.7652 8.37161 44.2089
 758 1 -26.4991 5.63255 44.2089
 759 1 -26.7576 4.23798 46.6649
 760 1 -27.054 1.41784 46.6649
 761 1 -27.0911 1.53485e-014 44.2089
 762 1 -26.9427 -2.83179 44.2089
 763 1 -26.7576 -4.23798 46.6649
 764 1 -26.168 -7.01169 46.6649
 765 1 -25.7652 -8.37161 44.2089
 766 1 -24.7489 -11.0189 44.2089
 767 1 -24.1383 -12.2991 46.6649
 768 1 -22.7205 -14.7549 46.6649
 769 1 -21.9172 -15.9237 44.2089
 770 1 -20.1326 -18.1275 44.2089
 771 1 -19.1563 -19.1563 46.6649
 772 1 -17.049 -21.0537 46.6649
 773 1 -15.9237 -21.9172 44.2089
 774 1 -13.5455 -23.4616 44.2089
 775 1 -12.2991 -24.1383 46.6649
 776 1 -9.70858 -25.2917 46.6649
 777 1 -8.37161 -25.7652 44.2089
 778 1 -5.63255 -26.4991 44.2089
 779 1 -4.23798 -26.7576 46.6649
 780 1 -1.41784 -27.054 46.6649
 781 1 -2.90381e-014 -27.0911 44.2089
 782 1 2.83179 -26.9427 44.2089
 783 1 4.23798 -26.7576 46.6649
 784 1 7.01169 -26.168 46.6649
 785 1 8.37161 -25.7652 44.2089
 786 1 11.0189 -24.7489 44.2089
 787 1 12.2991 -24.1383 46.6649
 788 1 14.7549 -22.7205 46.6649
 789 1 15.9237 -21.9172 44.2089
 790 1 18.1275 -20.1326 44.2089
 791 1 19.1563 -19.1563 46.6649
 792 1 21.0537 -17.049 46.6649
 793 1 21.9172 -15.9237 44.2089
 794 1 23.4616 -13.5455 44.2089
 795 1 24.1383 -12.2991 46.6649
 796 1 25.2917 -9.70858 46.6649
 797 1 25.7652 -8.37161 44.2089
 798 1 26.4991 -5.63255 44.2089
 799 1 26.7576 -4.23798 46.6649
 800 1 27.054 -1.41784 46.6649
 801 1 27.0911 0 49.121
 802 1 26.9427 2.83179 49.121
 803 1 26.7576 4.23798 51.577
 804 1 26.168 7.01169 51.577
 805 1 25.7652 8.37161 49.121
 806 1 24.7489 11.0189 49.121
 807 1 24.1383 12.2991 51.577
 808 1 22.7205 14.7549 51.577
 809 1 21.9172 15.9237 49.121
 810 1 20.1326 18.1275 49.121
 811 1 19.1563 19.1563 51.577
 812 1 17.049 21.0537 51.577
 813 1 15.9237 21.9172 49.121
 814 1 13.5455 23.4616 49.121
 815 1 12.2991 24.1383 51.577
 816 1 9.70858 25.2917 51.577
 817 1 8.37161 25.7652 49.121
 818 1 5.63255 26.4991 49.121
 819 1 4.23798 26.7576 51.577
 820 1 1.41784 27.054 51.577
 821 1 7.67423e-015 27.0911 49.121
 822 1 -2.83179 26.9427 49.121
 823 1 -4.23798 26.7576 51.577
 824 1 -7.01169 26.168 51.577
 825 1 -8.37161 25.7652 49.121
 826 1 -11.0189 24.7489 49.121
 827 1 -12.2991 24.1383 51.577
 828 1 -14.7549 22.7205 51.577
 829 1 -15.9237 21.9172 49.121
 830 1 -18.1275 20.1326 49.121
 831 1 -19.1563 19.1563 51.577
 832 1 -21.0537 17.049 51.577
 833 1 -21.9172 15.9237 49.121
 834 1 -23.4616 13.5455 49.121
 835 1 -24.1383 12.2991 51.577
 836 1 -25.2917 9.70858 51.577
 837 1 -25.7652 8.37161 49.121
 838 1 -26.4991 5.63255 49.121
 839 1 -26.7576 4.23798 51.577
 840 1 -27.054 1.41784 51.577
 841 1 -27.0911 1.53485e-014 49.121
 842 1 -26.9427 -2.83179 49.121
 843 1 -26.7576 -4.23798 51.577
 844 1 -26.168 -7.01169 51.577
 845 1 -25.7652 -8.37161 49.121
 846 1 -24.7489 -11.0189 49.121
 847 1 -24.1383 -12.2991 51.577
 848 1 -22.7205 -14.7549 51.577
 849 1 -21.9172 -15.9237 49.121
 850 1 -20.1326 -18.1275 49.121
 851 1 -19.1563 -19.1563 51.577
 852 1 -17.049 -21.0537 51.577
 853 1 -15.9237 -21.9172 49.121
 854 1 -13.5455 -23.4616 49.121
 855 1 -12.2991 -24.1383 51.577
 856 1 -9.70858 -25.2917 51.577
 857 1 -8.37161 -25.7652 49.121
 858 1 -5.63255 -26.4991 49.121
 859 1 -4.23798 -26.7576 51.577
 860 1 -1.41784 -27.054 51.577
 861 1 -2.90381e-014 -27.0911 49.121
 862 1 2.83179 -26.9427 49.121
 863 1 4.23798 -26.7576 51.577
 864 1 7.01169 -26.168 51.577
 865 1 8.37161 -25.7652 49.121
 866 1 11.0189 -24.7489 49.121
 867 1 12.2991 -24.1383 51.577
 868 1 14.7549 -22.7205 51.577
 869 1 15.9237 -21.9172 49.121
 870 1 18.1275 -20.1326 49.121
 871 1 19.1563 -19.1563 51.577
 872 1 21.0537 -17.049 51.577
 873 1 21.9172 -15.9237 49.121
 874 1 23.4616 -13.5455 49.121
 875 1 24.1383 -12.2991 51.577
 876 1 25.2917 -9.70858 51.577
 877 1 25.7652 -8.37161 49.121
 878 1 26.4991 -5.63255 49.121
 879 1 26.7576 -4.23798 51.577
 880 1 27.054 -1.41784 51.577
 881 1 27.0911 0 54.0331
 882 1 26.9427 2.83179 54.0331
 883 1 26.7576 4.23798 56.4891
 884 1 26.168 7.01169 56.4891
 885 1 25.7652 8.37161 54.0331
 886 1 24.7489 11.0189 54.0331
 887 1 24.1383 12.2991 56.4891
 888 1 22.7205 14.7549 56.4891
 889 1 21.9172 15.9237 54.0331
 890 1 20.1326 18.1275 54.0331
 891 1 19.1563 19.1563 56.4891
 892 1 17.049 21.0537 56.4891
 893 1 15.9237 21.9172 54.0331
 894 1 13.5455 23.4616 54.0331
 895 1 12.2991 24.1383 56.4891
 896 1 9.70858 25.2917 56.4891
 897 1 8.37161 25.7652 54.0331
 898 1 5.63255 26.4991 54.0331
 899 1 4.23798 26.7576 56.4891
 900 1 1.41784 27.054 56.4891
 901 1 7.67423e-015 27.0911 54.0331
 902 1 -2.83179 26.9427 54.0331
 903 1 -4.23798 26.7576 56.4891
 904 1 -7.01169 26.168 56.4891
 905 1 -8.37161 25.7652 54.0331
 906 1 -11.0189 24.7489 54.0331
 907 1 -12.2991 24.1383 56.4891
 908 1 -14.7549 22.7205 56.4891
 909 1 -15.9237 21.9172 54.0331
 910 1 -18.1275 20.1326 54.0331
 911 1 -19.1563 19.1563 56.4891
 912 1 -21.0537 17.049 56.4891
 913 1 -21.9172 15.9237 54.0331
 914 1 -23.4616 13.5455 54.0331
 915 1 -24.1383 12.2991 56.4891
 916 1 -25.2917 9.70858 56.4891
 917 1 -25.7652 8.37161 54.0331
 918 1 -26.4991 5.63255 54.0331
 919 1 -26.7576 4.23798 56.4891
 920 1 -27.054 1.41784 56.4891
 921 1 -27.0911 1.53485e-014 54.0331
 922 1 -26.9427 -2.83179 54.0331
 923 1 -26.7576 -4.23798 56.4891
 924 1 -26.168 -7.01169 56.4891
 925 1 -25.7652 -8.37161 54.0331
 926 1 -24.7489 -11.0189 54.0331
 927 1 -24.1383 -12.2991 56.4891
 928 1 -22.7205 -14.7549 56.4891
 929 1 -21.9172 -15.9237 54.0331
 930 1 -20.1326 -18.1275 54.0331
 931 1 -19.1563 -19.1563 56.4891
 932 1 -17.049 -21.0537 56.4891
 933 1 -15.9237 -21.9172 54.0331
 934 1 -13.5455 -23.4616 54.0331
 935 1 -12.2991 -24.1383 56.4891
 936 1 -9.70858 -25.2917 56.4891
 937 1 -8.37161 -25.7652 54.0331
 938 1 -5.63255 -26.4991 54.0331
 939 1 -4.23798 -26.7576 56.4891
 940 1 -1.41784 -27.054 56.4891
 941 1 -2.90381e-014 -27.0911 54.0331
 942 1 2.83179 -26.9427 54.0331
 943 1 4.23798 -26.7576 56.4891
 944 1 7.01169 -26.168 56.4891
 945 1 8.37161 -25.7652 54.0331
 946 1 11.0189 -24.7489 54.0331
 947 1 12.2991 -24.1383 56.4891
 948 1 14.7549 -22.7205 56.4891
 949 1 15.9237 -21.9172 54.0331