ITEM: TIMESTEP
0
ITEM: NUMBER OF ATOMS
2480
ITEM: BOX BOUNDS pp pp pp
-50 50
-50 50
-1.22803 303.322
ITEM: ATOMS id type xu yu zu
 1 1 13.5595 0 0
 2 1 13.2632 2.81917 0
 3 1 12.8958 4.19011 2.45605
 4 1 11.7429 6.77974 2.45605
 5 1 10.9699 7.97006 0
 6 1 9.07306 10.0767 0
 7 1 7.97006 10.9699 2.45605
 8 1 5.51514 12.3872 2.45605
 9 1 4.19011 12.8958 0
 10 1 1.41735 13.4852 0
 11 1 3.84106e-015 13.5595 2.45605
 12 1 -2.81917 13.2632 2.45605
 13 1 -4.19011 12.8958 0
 14 1 -6.77974 11.7429 0
 15 1 -7.97006 10.9699 2.45605
 16 1 -10.0767 9.07306 2.45605
 17 1 -10.9699 7.97006 0
 18 1 -12.3872 5.51514 0
 19 1 -12.8958 4.19011 2.45605
 20 1 -13.4852 1.41735 2.45605
 21 1 -13.5595 7.68212e-015 0
 22 1 -13.2632 -2.81917 0
 23 1 -12.8958 -4.19011 2.45605
 24 1 -11.7429 -6.77974 2.45605
 25 1 -10.9699 -7.97006 0
 26 1 -9.07306 -10.0767 0
 27 1 -7.97006 -10.9699 2.45605
 28 1 -5.51514 -12.3872 2.45605
 29 1 -4.19011 -12.8958 0
 30 1 -1.41735 -13.4852 0
 31 1 -1.4534e-014 -13.5595 2.45605
 32 1 2.81917 -13.2632 2.45605
 33 1 4.19011 -12.8958 0
 34 1 6.77974 -11.7429 0
 35 1 7.97006 -10.9699 2.45605
 36 1 10.0767 -9.07306 2.45605
 37 1 10.9699 -7.97006 0
 38 1 12.3872 -5.51514 0
 39 1 12.8958 -4.19011 2.45605
 40 1 13.4852 -1.41735 2.45605
 41 1 13.5595 0 4.9121
 42 1 13.2632 2.81917 4.9121
 43 1 12.8958 4.19011 7.36814
 44 1 11.7429 6.77974 7.36814
 45 1 10.9699 7.97006 4.9121
 46 1 9.07306 10.0767 4.9121
 47 1 7.97006 10.9699 7.36814
 48 1 5.51514 12.3872 7.36814
 49 1 4.19011 12.8958 4.9121
 50 1 1.41735 13.4852 4.9121
 51 1 3.84106e-015 13.5595 7.36814
 52 1 -2.81917 13.2632 7.36814
 53 1 -4.19011 12.8958 4.9121
 54 1 -6.77974 11.7429 4.9121
 55 1 -7.97006 10.9699 7.36814
 56 1 -10.0767 9.07306 7.36814
 57 1 -10.9699 7.97006 4.9121
 58 1 -12.3872 5.51514 4.9121
 59 1 -12.8958 4.19011 7.36814
 60 1 -13.4852 1.41735 7.36814
 61 1 -13.5595 7.68212e-015 4.9121
 62 1 -13.2632 -2.81917 4.9121
 63 1 -12.8958 -4.19011 7.36814
 64 1 -11.7429 -6.77974 7.36814
 65 1 -10.9699 -7.97006 4.9121
 66 1 -9.07306 -10.0767 4.9121
 67 1 -7.97006 -10.9699 7.36814
 68 1 -5.51514 -12.3872 7.36814
 69 1 -4.19011 -12.8958 4.9121
 70 1 -1.41735 -13.4852 4.9121
 71 1 -1.4534e-014 -13.5595 7.36814
 72 1 2.81917 -13.2632 7.36814
 73 1 4.19011 -12.8958 4.9121
 74 1 6.77974 -11.7429 4.9121
 75 1 7.97006 -10.9699 7.36814
 76 1 10.0767 -9.07306 7.36814
 77 1 10.9699 -7.97006 4.9121
 78 1 12.3872 -5.51514 4.9121
 79 1 12.8958 -4.19011 7.36814
 80 1 13.4852 -1.41735 7.36814
 81 1 13.5595 0 9.82419
 82 1 13.2632 2.81917 9.82419
 83 1 12.8958 4.19011 12.2802
 84 1 11.7429 6.77974 12.2802
 85 1 10.9699 7.97006 9.82419
 86 1 9.07306 10.0767 9.82419
 87 1 7.97006 10.9699 12.2802
 88 1 5.51514 12.3872 12.2802
 89 1 4.19011 12.8958 9.82419
 90 1 1.41735 13.4852 9.82419
 91 1 3.84106e-015 13.5595 12.2802
 92 1 -2.81917 13.2632 12.2802
 93 1 -4.19011 12.8958 9.82419
 94 1 -6.77974 11.7429 9.82419
 95 1 -7.97006 10.9699 12.2802
 96 1 -10.0767 9.07306 12.2802
 97 1 -10.9699 7.97006 9.82419
 98 1 -12.3872 5.51514 9.82419
 99 1 -12.8958 4.19011 12.2802
 100 1 -13.4852 1.41735 12.2802
 101 1 -13.5595 7.68212e-015 9.82419
 102 1 -13.2632 -2.81917 9.82419
 103 1 -12.8958 -4.19011 12.2802
 104 1 -11.7429 -6.77974 12.2802
 105 1 -10.9699 -7.97006 9.82419
 106 1 -9.07306 -10.0767 9.82419
 107 1 -7.97006 -10.9699 12.2802
 108 1 -5.51514 -12.3872 12.2802
 109 1 -4.19011 -12.8958 9.82419
 110 1 -1.41735 -13.4852 9.82419
 111 1 -1.4534e-014 -13.5595 12.2802
 112 1 2.81917 -13.2632 12.2802
 113 1 4.19011 -12.8958 9.82419
 114 1 6.77974 -11.7429 9.82419
 115 1 7.97006 -10.9699 12.2802
 116 1 10.0767 -9.07306 12.2802
 117 1 10.9699 -7.97006 9.82419
 118 1 12.3872 -5.51514 9.82419
 119 1 12.8958 -4.19011 12.2802
 120 1 13.4852 -1.41735 12.2802
 121 1 13.5595 0 14.7363
 122 1 13.2632 2.81917 14.7363
 123 1 12.8958 4.19011 17.1923
 124 1 11.7429 6.77974 17.1923
 125 1 10.9699 7.97006 14.7363
 126 1 9.07306 10.0767 14.7363
 127 1 7.97006 10.9699 17.1923
 128 1 5.51514 12.3872 17.1923
 129 1 4.19011 12.8958 14.7363
 130 1 1.41735 13.4852 14.7363
 131 1 3.84106e-015 13.5595 17.1923
 132 1 -2.81917 13.2632 17.1923
 133 1 -4.19011 12.8958 14.7363
 134 1 -6.77974 11.7429 14.7363
 135 1 -7.97006 10.9699 17.1923
 136 1 -10.0767 9.07306 17.1923
 137 1 -10.9699 7.97006 14.7363
 138 1 -12.3872 5.51514 14.7363
 139 1 -12.8958 4.19011 17.1923
 140 1 -13.4852 1.41735 17.1923
 141 1 -13.5595 7.68212e-015 14.7363
 142 1 -13.2632 -2.81917 14.7363
 143 1 -12.8958 -4.19011 17.1923
 144 1 -11.7429 -6.77974 17.1923
 145 1 -10.9699 -7.97006 14.7363
 146 1 -9.07306 -10.0767 14.7363
 147 1 -7.97006 -10.9699 17.1923
 148 1 -5.51514 -12.3872 17.1923
 149 1 -4.19011 -12.8958 14.7363
 150 1 -1.41735 -13.4852 14.7363
 151 1 -1.4534e-014 -13.5595 17.1923
 152 1 2.81917 -13.2632 17.1923
 153 1 4.19011 -12.8958 14.7363
 154 1 6.77974 -11.7429 14.7363
 155 1 7.97006 -10.9699 17.1923
 156 1 10.0767 -9.07306 17.1923
 157 1 10.9699 -7.97006 14.7363
 158 1 12.3872 -5.51514 14.7363
 159 1 12.8958 -4.19011 17.1923
 160 1 13.4852 -1.41735 17.1923
 161 1 13.5595 0 19.6484
 162 1 13.2632 2.81917 19.6484
 163 1 12.8958 4.19011 22.1044
 164 1 11.7429 6.77974 22.1044
 165 1 10.9699 7.97006 19.6484
 166 1 9.07306 10.0767 19.6484
 167 1 7.97006 10.9699 22.1044
 168 1 5.51514 12.3872 22.1044
 169 1 4.19011 12.8958 19.6484
 170 1 1.41735 13.4852 19.6484
 171 1 3.84106e-015 13.5595 22.1044
 172 1 -2.81917 13.2632 22.1044
 173 1 -4.19011 12.8958 19.6484
 174 1 -6.77974 11.7429 19.6484
 175 1 -7.97006 10.9699 22.1044
 176 1 -10.0767 9.07306 22.1044
 177 1 -10.9699 7.97006 19.6484
 178 1 -12.3872 5.51514 19.6484
 179 1 -12.8958 4.19011 22.1044
 180 1 -13.4852 1.41735 22.1044
 181 1 -13.5595 7.68212e-015 19.6484
 182 1 -13.2632 -2.81917 19.6484
 183 1 -12.8958 -4.19011 22.1044
 184 1 -11.7429 -6.77974 22.1044
 185 1 -10.9699 -7.97006 19.6484
 186 1 -9.07306 -10.0767 19.6484
 187 1 -7.97006 -10.9699 22.1044
 188 1 -5.51514 -12.3872 22.1044
 189 1 -4.19011 -12.8958 19.6484
 190 1 -1.41735 -13.4852 19.6484
 191 1 -1.4534e-014 -13.5595 22.1044
 192 1 2.81917 -13.2632 22.1044
 193 1 4.19011 -12.8958 19.6484
 194 1 6.77974 -11.7429 19.6484
 195 1 7.97006 -10.9699 22.1044
 196 1 10.0767 -9.07306 22.1044
 197 1 10.9699 -7.97006 19.6484
 198 1 12.3872 -5.51514 19.6484
 199 1 12.8958 -4.19011 22.1044
 200 1 13.4852 -1.41735 22.1044
 201 1 13.5595 0 24.5605
 202 1 13.2632 2.81917 24.5605
 203 1 12.8958 4.19011 27.0165
 204 1 11.7429 6.77974 27.0165
 205 1 10.9699 7.97006 24.5605
 206 1 9.07306 10.0767 24.5605
 207 1 7.97006 10.9699 27.0165
 208 1 5.51514 12.3872 27.0165
 209 1 4.19011 12.8958 24.5605
 210 1 1.41735 13.4852 24.5605
 211 1 3.84106e-015 13.5595 27.0165
 212 1 -2.81917 13.2632 27.0165
 213 1 -4.19011 12.8958 24.5605
 214 1 -6.77974 11.7429 24.5605
 215 1 -7.97006 10.9699 27.0165
 216 1 -10.0767 9.07306 27.0165
 217 1 -10.9699 7.97006 24.5605
 218 1 -12.3872 5.51514 24.5605
 219 1 -12.8958 4.19011 27.0165
 220 1 -13.4852 1.41735 27.0165
 221 1 -13.5595 7.68212e-015 24.5605
 222 1 -13.2632 -2.81917 24.5605
 223 1 -12.8958 -4.19011 27.0165
 224 1 -11.7429 -6.77974 27.0165
 225 1 -10.9699 -7.97006 24.5605
 226 1 -9.07306 -10.0767 24.5605
 227 1 -7.97006 -10.9699 27.0165
 228 1 -5.51514 -12.3872 27.0165
 229 1 -4.19011 -12.8958 24.5605
 230 1 -1.41735 -13.4852 24.5605
 231 1 -1.4534e-014 -13.5595 27.0165
 232 1 2.81917 -13.2632 27.0165
 233 1 4.19011 -12.8958 24.5605
 234 1 6.77974 -11.7429 24.5605
 235 1 7.97006 -10.9699 27.0165
 236 1 10.0767 -9.07306 27.0165
 237 1 10.9699 -7.97006 24.5605
 238 1 12.3872 -5.51514 24.5605
 239 1 12.8958 -4.19011 27.0165
 240 1 13.4852 -1.41735 27.0165
 241 1 13.5595 0 29.4726
 242 1 13.2632 2.81917 29.4726
 243 1 12.8958 4.19011 31.9286
 244 1 11.7429 6.77974 31.9286
 245 1 10.9699 7.97006 29.4726
 246 1 9.07306 10.0767 29.4726
 247 1 7.97006 10.9699 31.9286
 248 1 5.51514 12.3872 31.9286
 249 1 4.19011 12.8958 29.4726
 250 1 1.41735 13.4852 29.4726
 251 1 3.84106e-015 13.5595 31.9286
 252 1 -2.81917 13.2632 31.9286
 253 1 -4.19011 12.8958 29.4726
 254 1 -6.77974 11.7429 29.4726
 255 1 -7.97006 10.9699 31.9286
 256 1 -10.0767 9.07306 31.9286
 257 1 -10.9699 7.97006 29.4726
 258 1 -12.3872 5.51514 29.4726
 259 1 -12.8958 4.19011 31.9286
 260 1 -13.4852 1.41735 31.9286
 261 1 -13.5595 7.68212e-015 29.4726
 262 1 -13.2632 -2.81917 29.4726
 263 1 -12.8958 -4.19011 31.9286
 264 1 -11.7429 -6.77974 31.9286
 265 1 -10.9699 -7.97006 29.4726
 266 1 -9.07306 -10.0767 29.4726
 267 1 -7.97006 -10.9699 31.9286
 268 1 -5.51514 -12.3872 31.9286
 269 1 -4.19011 -12.8958 29.4726
 270 1 -1.41735 -13.4852 29.4726
 271 1 -1.4534e-014 -13.5595 31.9286
 272 1 2.81917 -13.2632 31.9286
 273 1 4.19011 -12.8958 29.4726
 274 1 6.77974 -11.7429 29.4726
 275 1 7.97006 -10.9699 31.9286
 276 1 10.0767 -9.07306 31.9286
 277 1 10.9699 -7.97006 29.4726
 278 1 12.3872 -5.51514 29.4726
 279 1 12.8958 -4.19011 31.9286
 280 1 13.4852 -1.41735 31.9286
 281 1 13.5595 0 34.3847
 282 1 13.2632 2.81917 34.3847
 283 1 12.8958 4.19011 36.8407
 284 1 11.7429 6.77974 36.8407
 285 1 10.9699 7.97006 34.3847
 286 1 9.07306 10.0767 34.3847
 287 1 7.97006 10.9699 36.8407
 288 1 5.51514 12.3872 36.8407
 289 1 4.19011 12.8958 34.3847
 290 1 1.41735 13.4852 34.3847
 291 1 3.84106e-015 13.5595 36.8407
 292 1 -2.81917 13.2632 36.8407
 293 1 -4.19011 12.8958 34.3847
 294 1 -6.77974 11.7429 34.3847
 295 1 -7.97006 10.9699 36.8407
 296 1 -10.0767 9.07306 36.8407
 297 1 -10.9699 7.97006 34.3847
 298 1 -12.3872 5.51514 34.3847
 299 1 -12.8958 4.19011 36.8407
 300 1 -13.4852 1.41735 36.8407
 301 1 -13.5595 7.68212e-015 34.3847
 302 1 -13.2632 -2.81917 34.3847
 303 1 -12.8958 -4.19011 36.8407
 304 1 -11.7429 -6.77974 36.8407
 305 1 -10.9699 -7.97006 34.3847
 306 1 -9.07306 -10.0767 34.3847
 307 1 -7.97006 -10.9699 36.8407
 308 1 -5.51514 -12.3872 36.8407
 309 1 -4.19011 -12.8958 34.3847
 310 1 -1.41735 -13.4852 34.3847
 311 1 -1.4534e-014 -13.5595 36.8407
 312 1 2.81917 -13.2632 36.8407
 313 1 4.19011 -12.8958 34.3847
 314 1 6.77974 -11.7429 34.3847
 315 1 7.97006 -10.9699 36.8407
 316 1 10.0767 -9.07306 36.8407
 317 1 10.9699 -7.97006 34.3847
 318 1 12.3872 -5.51514 34.3847
 319 1 12.8958 -4.19011 36.8407
 320 1 13.4852 -1.41735 36.8407
 321 1 13.5595 0 39.2968
 322 1 13.2632 2.81917 39.2968
 323 1 12.8958 4.19011 41.7528
 324 1 11.7429 6.77974 41.7528
 325 1 10.9699 7.97006 39.2968
 326 1 9.07306 10.0767 39.2968
 327 1 7.97006 10.9699 41.7528
 328 1 5.51514 12.3872 41.7528
 329 1 4.19011 12.8958 39.2968
 330 1 1.41735 13.4852 39.2968
 331 1 3.84106e-015 13.5595 41.7528
 332 1 -2.81917 13.2632 41.7528
 333 1 -4.19011 12.8958 39.2968
 334 1 -6.77974 11.7429 39.2968
 335 1 -7.97006 10.9699 41.7528
 336 1 -10.0767 9.07306 41.7528
 337 1 -10.9699 7.97006 39.2968
 338 1 -12.3872 5.51514 39.2968
 339 1 -12.8958 4.19011 41.7528
 340 1 -13.4852 1.41735 41.7528
 341 1 -13.5595 7.68212e-015 39.2968
 342 1 -13.2632 -2.81917 39.2968
 343 1 -12.8958 -4.19011 41.7528
 344 1 -11.7429 -6.77974 41.7528
 345 1 -10.9699 -7.97006 39.2968
 346 1 -9.07306 -10.0767 39.2968
 347 1 -7.97006 -10.9699 41.7528
 348 1 -5.51514 -12.3872 41.7528
 349 1 -4.19011 -12.8958 39.2968
 350 1 -1.41735 -13.4852 39.2968
 351 1 -1.4534e-014 -13.5595 41.7528
 352 1 2.81917 -13.2632 41.7528
 353 1 4.19011 -12.8958 39.2968
 354 1 6.77974 -11.7429 39.2968
 355 1 7.97006 -10.9699 41.7528
 356 1 10.0767 -9.07306 41.7528
 357 1 10.9699 -7.97006 39.2968
 358 1 12.3872 -5.51514 39.2968
 359 1 12.8958 -4.19011 41.7528
 360 1 13.4852 -1.41735 41.7528
 361 1 13.5595 0 44.2089
 362 1 13.2632 2.81917 44.2089
 363 1 12.8958 4.19011 46.6649
 364 1 11.7429 6.77974 46.6649
 365 1 10.9699 7.97006 44.2089
 366 1 9.07306 10.0767 44.2089
 367 1 7.97006 10.9699 46.6649
 368 1 5.51514 12.3872 46.6649
 369 1 4.19011 12.8958 44.2089
 370 1 1.41735 13.4852 44.2089
 371 1 3.84106e-015 13.5595 46.6649
 372 1 -2.81917 13.2632 46.6649
 373 1 -4.19011 12.8958 44.2089
 374 1 -6.77974 11.7429 44.2089
 375 1 -7.97006 10.9699 46.6649
 376 1 -10.0767 9.07306 46.6649
 377 1 -10.9699 7.97006 44.2089
 378 1 -12.3872 5.51514 44.2089
 379 1 -12.8958 4.19011 46.6649
 380 1 -13.4852 1.41735 46.6649
 381 1 -13.5595 7.68212e-015 44.2089
 382 1 -13.2632 -2.81917 44.2089
 383 1 -12.8958 -4.19011 46.6649
 384 1 -11.7429 -6.77974 46.6649
 385 1 -10.9699 -7.97006 44.2089
 386 1 -9.07306 -10.0767 44.2089
 387 1 -7.97006 -10.9699 46.6649
 388 1 -5.51514 -12.3872 46.6649
 389 1 -4.19011 -12.8958 44.2089
 390 1 -1.41735 -13.4852 44.2089
 391 1 -1.4534e-014 -13.5595 46.6649
 392 1 2.81917 -13.2632 46.6649
 393 1 4.19011 -12.8958 44.2089
 394 1 6.77974 -11.7429 44.2089
 395 1 7.97006 -10.9699 46.6649
 396 1 10.0767 -9.07306 46.6649
 397 1 10.9699 -7.97006 44.2089
 398 1 12.3872 -5.51514 44.2089
 399 1 12.8958 -4.19011 46.6649
 400 1 13.4852 -1.41735 46.6649
 401 1 13.5595 0 49.121
 402 1 13.2632 2.81917 49.121
 403 1 12.8958 4.19011 51.577
 404 1 11.7429 6.77974 51.577
 405 1 10.9699 7.97006 49.121
 406 1 9.07306 10.0767 49.121
 407 1 7.97006 10.9699 51.577
 408 1 5.51514 12.3872 51.577
 409 1 4.19011 12.8958 49.121
 410 1 1.41735 13.4852 49.121
 411 1 3.84106e-015 13.5595 51.577
 412 1 -2.81917 13.2632 51.577
 413 1 -4.19011 12.8958 49.121
 414 1 -6.77974 11.7429 49.121
 415 1 -7.97006 10.9699 51.577
 416 1 -10.0767 9.07306 51.577
 417 1 -10.9699 7.97006 49.121
 418 1 -12.3872 5.51514 49.121
 419 1 -12.8958 4.19011 51.577
 420 1 -13.4852 1.41735 51.577
 421 1 -13.5595 7.68212e-015 49.121
 422 1 -13.2632 -2.81917 49.121
 423 1 -12.8958 -4.19011 51.577
 424 1 -11.7429 -6.77974 51.577
 425 1 -10.9699 -7.97006 49.121
 426 1 -9.07306 -10.0767 49.121
 427 1 -7.97006 -10.9699 51.577
 428 1 -5.51514 -12.3872 51.577
 429 1 -4.19011 -12.8958 49.121
 430 1 -1.41735 -13.4852 49.121
 431 1 -1.4534e-014 -13.5595 51.577
 432 1 2.81917 -13.2632 51.577
 433 1 4.19011 -12.8958 49.121
 434 1 6.77974 -11.7429 49.121
 435 1 7.97006 -10.9699 51.577
 436 1 10.0767 -9.07306 51.577
 437 1 10.9699 -7.97006 49.121
 438 1 12.3872 -5.51514 49.121
 439 1 12.8958 -4.19011 51.577
 440 1 13.4852 -1.41735 51.577
 441 1 13.5595 0 54.0331
 442 1 13.2632 2.81917 54.0331
 443 1 12.8958 4.19011 56.4891
 444 1 11.7429 6.77974 56.4891
 445 1 10.9699 7.97006 54.0331
 446 1 9.07306 10.0767 54.0331
 447 1 7.97006 10.9699 56.4891
 448 1 5.51514 12.3872 56.4891
 449 1 4.19011 12.8958 54.0331
 450 1 1.41735 13.4852 54.0331
 451 1 3.84106e-015 13.5595 56.4891
 452 1 -2.81917 13.2632 56.4891
 453 1 -4.19011 12.8958 54.0331
 454 1 -6.77974 11.7429 54.0331
 455 1 -7.97006 10.9699 56.4891
 456 1 -10.0767 9.07306 56.4891
 457 1 -10.9699 7.97006 54.0331
 458 1 -12.3872 5.51514 54.0331
 459 1 -12.8958 4.19011 56.4891
 460 1 -13.4852 1.41735 56.4891
 461 1 -13.5595 7.68212e-015 54.0331
 462 1 -13.2632 -2.81917 54.0331
 463 1 -12.8958 -4.19011 56.4891
 464 1 -11.7429 -6.77974 56.4891
 465 1 -10.9699 -7.97006 54.0331
 466 1 -9.07306 -10.0767 54.0331
 467 1 -7.97006 -10.9699 56.4891
 468 1 -5.51514 -12.3872 56.4891
 469 1 -4.19011 -12.8958 54.0331
 470 1 -1.41735 -13.4852 54.0331
 471 1 -1.4534e-014 -13.5595 56.4891
 472 1 2.81917 -13.2632 56.4891
 473 1 4.19011 -12.8958 54.0331
 474 1 6.77974 -11.7429 54.0331
 475 1 7.97006 -10.9699 56.4891
 476 1 10.0767 -9.07306 56.4891
 477 1 10.9699 -7.97006 54.0331
 478 1 12.3872 -5.51514 54.0331
 479 1 12.8958 -4.19011 56.4891
 480 1 13.4852 -1.41735 56.4891
 481 1 13.5595 0 58.9452
 482 1 13.2632 2.81917 58.9452
 483 1 12.8958 4.19011 61.4012
 484 1 11.7429 6.77974 61.4012
 485 1 10.9699 7.97006 58.9452
 486 1 9.07306 10.0767 58.9452
 487 1 7.97006 10.9699 61.4012
 488 1 5.51514 12.3872 61.4012
 489 1 4.19011 12.8958 58.9452
 490 1 1.41735 13.4852 58.9452
 491 1 3.84106e-015 13.5595 61.4012
 492 1 -2.81917 13.2632 61.4012
 493 1 -4.19011 12.8958 58.9452
 494 1 -6.77974 11.7429 58.9452
 495 1 -7.97006 10.9699 61.4012
 496 1 -10.0767 9.07306 61.4012
 497 1 -10.9699 7.97006 58.9452
 498 1 -12.3872 5.51514 58.9452
 499 1 -12.8958 4.19011 61.4012
 500 1 -13.4852 1.41735 61.4012
 501 1 -13.5595 7.68212e-015 58.9452
 502 1 -13.2632 -2.81917 58.9452
 503 1 -12.8958 -4.19011 61.4012
 504 1 -11.7429 -6.77974 61.4012
 505 1 -10.9699 -7.97006 58.9452
 506 1 -9.07306 -10.0767 58.9452
 507 1 -7.97006 -10.9699 61.4012
 508 1 -5.51514 -12.3872 61.4012
 509 1 -4.19011 -12.8958 58.9452
 510 1 -1.41735 -13.4852 58.9452
 511 1 -1.4534e-014 -13.5595 61.4012
 512 1 2.81917 -13.2632 61.4012
 513 1 4.19011 -12.8958 58.9452
 514 1 6.77974 -11.7429 58.9452
 515 1 7.97006 -10.9699 61.4012
 516 1 10.0767 -9.07306 61.4012
 517 1 10.9699 -7.97006 58.9452
 518 1 12.3872 -5.51514 58.9452
 519 1 12.8958 -4.19011 61.4012
 520 1 13.4852 -1.41735 61.4012
 521 1 13.5595 0 63.8573
 522 1 13.2632 2.81917 63.8573
 523 1 12.8958 4.19011 66.3133
 524 1 11.7429 6.77974 66.3133
 525 1 10.9699 7.97006 63.8573
 526 1 9.07306 10.0767 63.8573
 527 1 7.97006 10.9699 66.3133
 528 1 5.51514 12.3872 66.3133
 529 1 4.19011 12.8958 63.8573
 530 1 1.41735 13.4852 63.8573
 531 1 3.84106e-015 13.5595 66.3133
 532 1 -2.81917 13.2632 66.3133
 533 1 -4.19011 12.8958 63.8573
 534 1 -6.77974 11.7429 63.8573
 535 1 -7.97006 10.9699 66.3133
 536 1 -10.0767 9.07306 66.3133
 537 1 -10.9699 7.97006 63.8573
 538 1 -12.3872 5.51514 63.8573
 539 1 -12.8958 4.19011 66.3133
 540 1 -13.4852 1.41735 66.3133
 541 1 -13.5595 7.68212e-015 63.8573
 542 1 -13.2632 -2.81917 63.8573
 543 1 -12.8958 -4.19011 66.3133
 544 1 -11.7429 -6.77974 66.3133
 545 1 -10.9699 -7.97006 63.8573
 546 1 -9.07306 -10.0767 63.8573
 547 1 -7.97006 -10.9699 66.3133
 548 1 -5.51514 -12.3872 66.3133
 549 1 -4.19011 -12.8958 63.8573
 550 1 -1.41735 -13.4852 63.8573
 551 1 -1.4534e-014 -13.5595 66.3133
 552 1 2.81917 -13.2632 66.3133
 553 1 4.19011 -12.8958 63.8573
 554 1 6.77974 -11.7429 63.8573
 555 1 7.97006 -10.9699 66.3133
 556 1 10.0767 -9.07306 66.3133
 557 1 10.9699 -7.97006 63.8573
 558 1 12.3872 -5.51514 63.8573
 559 1 12.8958 -4.19011 66.3133
 560 1 13.4852 -1.41735 66.3133
 561 1 13.5595 0 68.7693
 562 1 13.2632 2.81917 68.7693
 563 1 12.8958 4.19011 71.2254
 564 1 11.7429 6.77974 71.2254
 565 1 10.9699 7.97006 68.7693
 566 1 9.07306 10.0767 68.7693
 567 1 7.97006 10.9699 71.2254
 568 1 5.51514 12.3872 71.2254
 569 1 4.19011 12.8958 68.7693
 570 1 1.41735 13.4852 68.7693
 571 1 3.84106e-015 13.5595 71.2254
 572 1 -2.81917 13.2632 71.2254
 573 1 -4.19011 12.8958 68.7693
 574 1 -6.77974 11.7429 68.7693
 575 1 -7.97006 10.9699 71.2254
 576 1 -10.0767 9.07306 71.2254
 577 1 -10.9699 7.97006 68.7693
 578 1 -12.3872 5.51514 68.7693
 579 1 -12.8958 4.19011 71.2254
 580 1 -13.4852 1.41735 71.2254
 581 1 -13.5595 7.68212e-015 68.7693
 582 1 -13.2632 -2.81917 68.7693
 583 1 -12.8958 -4.19011 71.2254
 584 1 -11.7429 -6.77974 71.2254
 585 1 -10.9699 -7.97006 68.7693
 586 1 -9.07306 -10.0767 68.7693
 587 1 -7.97006 -10.9699 71.2254
 588 1 -5.51514 -12.3872 71.2254
 589 1 -4.19011 -12.8958 68.7693
 590 1 -1.41735 -13.4852 68.7693
 591 1 -1.4534e-014 -13.5595 71.2254
 592 1 2.81917 -13.2632 71.2254
 593 1 4.19011 -12.8958 68.7693
 594 1 6.77974 -11.7429 68.7693
 595 1 7.97006 -10.9699 71.2254
 596 1 10.0767 -9.07306 71.2254
 597 1 10.9699 -7.97006 68.7693
 598 1 12.3872 -5.51514 68.7693
 599 1 12.8958 -4.19011 71.2254
 600 1 13.4852 -1.41735 71.2254
 601 1 13.5595 0 73.6814
 602 1 13.2632 2.81917 73.6814
 603 1 12.8958 4.19011 76.1375
 604 1 11.7429 6.77974 76.1375
 605 1 10.9699 7.97006 73.6814
 606 1 9.07306 10.0767 73.6814
 607 1 7.97006 10.9699 76.1375
 608 1 5.51514 12.3872 76.1375
 609 1 4.19011 12.8958 73.6814
 610 1 1.41735 13.4852 73.6814
 611 1 3.84106e-015 13.5595 76.1375
 612 1 -2.81917 13.2632 76.1375
 613 1 -4.19011 12.8958 73.6814
 614 1 -6.77974 11.7429 73.6814
 615 1 -7.97006 10.9699 76.1375
 616 1 -10.0767 9.07306 76.1375
 617 1 -10.9699 7.97006 73.6814
 618 1 -12.3872 5.51514 73.6814
 619 1 -12.8958 4.19011 76.1375
 620 1 -13.4852 1.41735 76.1375
 621 1 -13.5595 7.68212e-015 73.6814
 622 1 -13.2632 -2.81917 73.6814
 623 1 -12.8958 -4.19011 76.1375
 624 1 -11.7429 -6.77974 76.1375
 625 1 -10.9699 -7.97006 73.6814
 626 1 -9.07306 -10.0767 73.6814
 627 1 -7.97006 -10.9699 76.1375
 628 1 -5.51514 -12.3872 76.1375
 629 1 -4.19011 -12.8958 73.6814
 630 1 -1.41735 -13.4852 73.6814
 631 1 -1.4534e-014 -13.5595 76.1375
 632 1 2.81917 -13.2632 76.1375
 633 1 4.19011 -12.8958 73.6814
 634 1 6.77974 -11.7429 73.6814
 635 1 7.97006 -10.9699 76.1375
 636 1 10.0767 -9.07306 76.1375
 637 1 10.9699 -7.97006 73.6814
 638 1 12.3872 -5.51514 73.6814
 639 1 12.8958 -4.19011 76.1375
 640 1 13.4852 -1.41735 76.1375
 641 1 13.5595 0 78.5935
 642 1 13.2632 2.81917 78.5935
 643 1 12.8958 4.19011 81.0496
 644 1 11.7429 6.77974 81.0496
 645 1 10.9699 7.97006 78.5935
 646 1 9.07306 10.0767 78.5935
 647 1 7.97006 10.9699 81.0496
 648 1 5.51514 12.3872 81.0496
 649 1 4.19011 12.8958 78.5935
 650 1 1.41735 13.4852 78.5935
 651 1 3.84106e-015 13.5595 81.0496
 652 1 -2.81917 13.2632 81.0496
 653 1 -4.19011 12.8958 78.5935
 654 1 -6.77974 11.7429 78.5935
 655 1 -7.97006 10.9699 81.0496
 656 1 -10.0767 9.07306 81.0496
 657 1 -10.9699 7.97006 78.5935
 658 1 -12.3872 5.51514 78.5935
 659 1 -12.8958 4.19011 81.0496
 660 1 -13.4852 1.41735 81.0496
 661 1 -13.5595 7.68212e-015 78.5935
 662 1 -13.2632 -2.81917 78.5935
 663 1 -12.8958 -4.19011 81.0496
 664 1 -11.7429 -6.77974 81.0496
 665 1 -10.9699 -7.97006 78.5935
 666 1 -9.07306 -10.0767 78.5935
 667 1 -7.97006 -10.9699 81.0496
 668 1 -5.51514 -12.3872 81.0496
 669 1 -4.19011 -12.8958 78.5935
 670 1 -1.41735 -13.4852 78.5935
 671 1 -1.4534e-014 -13.5595 81.0496
 672 1 2.81917 -13.2632 81.0496
 673 1 4.19011 -12.8958 78.5935
 674 1 6.77974 -11.7429 78.5935
 675 1 7.97006 -10.9699 81.0496
 676 1 10.0767 -9.07306 81.0496
 677 1 10.9699 -7.97006 78.5935
 678 1 12.3872 -5.51514 78.5935
 679 1 12.8958 -4.19011 81.0496
 680 1 13.4852 -1.41735 81.0496
 681 1 13.5595 0 83.5056
 682 1 13.2632 2.81917 83.5056
 683 1 12.8958 4.19011 85.9617
 684 1 11.7429 6.77974 85.9617
 685 1 10.9699 7.97006 83.5056
 686 1 9.07306 10.0767 83.5056
 687 1 7.97006 10.9699 85.9617
 688 1 5.51514 12.3872 85.9617
 689 1 4.19011 12.8958 83.5056
 690 1 1.41735 13.4852 83.5056
 691 1 3.84106e-015 13.5595 85.9617
 692 1 -2.81917 13.2632 85.9617
 693 1 -4.19011 12.8958 83.5056
 694 1 -6.77974 11.7429 83.5056
 695 1 -7.97006 10.9699 85.9617
 696 1 -10.0767 9.07306 85.9617
 697 1 -10.9699 7.97006 83.5056
 698 1 -12.3872 5.51514 83.5056
 699 1 -12.8958 4.19011 85.9617
 700 1 -13.4852 1.41735 85.9617
 701 1 -13.5595 7.68212e-015 83.5056
 702 1 -13.2632 -2.81917 83.5056
 703 1 -12.8958 -4.19011 85.9617
 704 1 -11.7429 -6.77974 85.9617
 705 1 -10.9699 -7.97006 83.5056
 706 1 -9.07306 -10.0767 83.5056
 707 1 -7.97006 -10.9699 85.9617
 708 1 -5.51514 -12.3872 85.9617
 709 1 -4.19011 -12.8958 83.5056
 710 1 -1.41735 -13.4852 83.5056
 711 1 -1.4534e-014 -13.5595 85.9617
 712 1 2.81917 -13.2632 85.9617
 713 1 4.19011 -12.8958 83.5056
 714 1 6.77974 -11.7429 83.5056
 715 1 7.97006 -10.9699 85.9617
 716 1 10.0767 -9.07306 85.9617
 717 1 10.9699 -7.97006 83.5056
 718 1 12.3872 -5.51514 83.5056
 719 1 12.8958 -4.19011 85.9617
 720 1 13.4852 -1.41735 85.9617
 721 1 13.5595 0 88.4177
 722 1 13.2632 2.81917 88.4177
 723 1 12.8958 4.19011 90.8738
 724 1 11.7429 6.77974 90.8738
 725 1 10.9699 7.97006 88.4177
 726 1 9.07306 10.0767 88.4177
 727 1 7.97006 10.9699 90.8738
 728 1 5.51514 12.3872 90.8738
 729 1 4.19011 12.8958 88.4177
 730 1 1.41735 13.4852 88.4177
 731 1 3.84106e-015 13.5595 90.8738
 732 1 -2.81917 13.2632 90.8738
 733 1 -4.19011 12.8958 88.4177
 734 1 -6.77974 11.7429 88.4177
 735 1 -7.97006 10.9699 90.8738
 736 1 -10.0767 9.07306 90.8738
 737 1 -10.9699 7.97006 88.4177
 738 1 -12.3872 5.51514 88.4177
 739 1 -12.8958 4.19011 90.8738
 740 1 -13.4852 1.41735 90.8738
 741 1 -13.5595 7.68212e-015 88.4177
 742 1 -13.2632 -2.81917 88.4177
 743 1 -12.8958 -4.19011 90.8738
 744 1 -11.7429 -6.77974 90.8738
 745 1 -10.9699 -7.97006 88.4177
 746 1 -9.07306 -10.0767 88.4177
 747 1 -7.97006 -10.9699 90.8738
 748 1 -5.51514 -12.3872 90.8738
 749 1 -4.19011 -12.8958 88.4177
 750 1 -1.41735 -13.4852 88.4177
 751 1 -1.4534e-014 -13.5595 90.8738
 752 1 2.81917 -13.2632 90.8738
 753 1 4.19011 -12.8958 88.4177
 754 1 6.77974 -11.7429 88.4177
 755 1 7.97006 -10.9699 90.8738
 756 1 10.0767 -9.07306 90.8738
 757 1 10.9699 -7.97006 88.4177
 758 1 12.3872 -5.51514 88.4177
 759 1 12.8958 -4.19011 90.8738
 760 1 13.4852 -1.41735 90.8738
 761 1 13.5595 0 93.3298
 762 1 13.2632 2.81917 93.3298
 763 1 12.8958 4.19011 95.7859
 764 1 11.7429 6.77974 95.7859
 765 1 10.9699 7.97006 93.3298
 766 1 9.07306 10.0767 93.3298
 767 1 7.97006 10.9699 95.7859
 768 1 5.51514 12.3872 95.7859
 769 1 4.19011 12.8958 93.3298
 770 1 1.41735 13.4852 93.3298
 771 1 3.84106e-015 13.5595 95.7859
 772 1 -2.81917 13.2632 95.7859
 773 1 -4.19011 12.8958 93.3298
 774 1 -6.77974 11.7429 93.3298
 775 1 -7.97006 10.9699 95.7859
 776 1 -10.0767 9.07306 95.7859
 777 1 -10.9699 7.97006 93.3298
 778 1 -12.3872 5.51514 93.3298
 779 1 -12.8958 4.19011 95.7859
 780 1 -13.4852 1.41735 95.7859
 781 1 -13.5595 7.68212e-015 93.3298
 782 1 -13.2632 -2.81917 93.3298
 783 1 -12.8958 -4.19011 95.7859
 784 1 -11.7429 -6.77974 95.7859
 785 1 -10.9699 -7.97006 93.3298
 786 1 -9.07306 -10.0767 93.3298
 787 1 -7.97006 -10.9699 95.7859
 788 1 -5.51514 -12.3872 95.7859
 789 1 -4.19011 -12.8958 93.3298
 790 1 -1.41735 -13.4852 93.3298
 791 1 -1.4534e-014 -13.5595 95.7859
 792 1 2.81917 -13.2632 95.7859
 793 1 4.19011 -12.8958 93.3298
 794 1 6.77974 -11.7429 93.3298
 795 1 7.97006 -10.9699 95.7859
 796 1 10.0767 -9.07306 95.7859
 797 1 10.9699 -7.97006 93.3298
 798 1 12.3872 -5.51514 93.3298
 799 1 12.8958 -4.19011 95.7859
 800 1 13.4852 -1.41735 95.7859
 801 1 13.5595 0 98.2419
 802 1 13.2632 2.81917 98.2419
 803 1 12.8958 4.19011 100.698
 804 1 11.7429 6.77974 100.698
 805 1 10.9699 7.97006 98.2419
 806 1 9.07306 10.0767 98.2419
 807 1 7.97006 10.9699 100.698
 808 1 5.51514 12.3872 100.698
 809 1 4.19011 12.8958 98.2419
 810 1 1.41735 13.4852 98.2419
 811 1 3.84106e-015 13.5595 100.698
 812 1 -2.81917 13.2632 100.698
 813 1 -4.19011 12.8958 98.2419
 814 1 -6.77974 11.7429 98.2419
 815 1 -7.97006 10.9699 100.698
 816 1 -10.0767 9.07306 100.698
 817 1 -10.9699 7.97006 98.2419
 818 1 -12.3872 5.51514 98.2419
 819 1 -12.8958 4.19011 100.698
 820 1 -13.4852 1.41735 100.698
 821 1 -13.5595 7.68212e-015 98.2419
 822 1 -13.2632 -2.81917 98.2419
 823 1 -12.8958 -4.19011 100.698
 824 1 -11.7429 -6.77974 100.698
 825 1 -10.9699 -7.97006 98.2419
 826 1 -9.07306 -10.0767 98.2419
 827 1 -7.97006 -10.9699 100.698
 828 1 -5.51514 -12.3872 100.698
 829 1 -4.19011 -12.8958 98.2419
 830 1 -1.41735 -13.4852 98.2419
 831 1 -1.4534e-014 -13.5595 100.698
 832 1 2.81917 -13.2632 100.698
 833 1 4.19011 -12.8958 98.2419
 834 1 6.77974 -11.7429 98.2419
 835 1 7.97006 -10.9699 100.698
 836 1 10.0767 -9.07306 100.698
 837 1 10.9699 -7.97006 98.2419
 838 1 12.3872 -5.51514 98.2419
 839 1 12.8958 -4.19011 100.698
 840 1 13.4852 -1.41735 100.698
 841 1 13.5595 0 103.154
 842 1 13.2632 2.81917 103.154
 843 1 12.8958 4.19011 105.61
 844 1 11.7429 6.77974 105.61
 845 1 10.9699 7.97006 103.154
 846 1 9.07306 10.0767 103.154
 847 1 7.97006 10.9699 105.61
 848 1 5.51514 12.3872 105.61
 849 1 4.19011 12.8958 103.154
 850 1 1.41735 13.4852 103.154
 851 1 3.84106e-015 13.5595 105.61
 852 1 -2.81917 13.2632 105.61
 853 1 -4.19011 12.8958 103.154
 854 1 -6.77974 11.7429 103.154
 855 1 -7.97006 10.9699 105.61
 856 1 -10.0767 9.07306 105.61
 857 1 -10.9699 7.97006 103.154
 858 1 -12.3872 5.51514 103.154
 859 1 -12.8958 4.19011 105.61
 860 1 -13.4852 1.41735 105.61
 861 1 -13.5595 7.68212e-015 103.154
 862 1 -13.2632 -2.81917 103.154
 863 1 -12.8958 -4.19011 105.61
 864 1 -11.7429 -6.77974 105.61
 865 1 -10.9699 -7.97006 103.154
 866 1 -9.07306 -10.0767 103.154
 867 1 -7.97006 -10.9699 105.61
 868 1 -5.51514 -12.3872 105.61
 869 1 -4.19011 -12.8958 103.154
 870 1 -1.41735 -13.4852 103.154
 871 1 -1.4534e-014 -13.5595 105.61
 872 1 2.81917 -13.2632 105.61
 873 1 4.19011 -12.8958 103.154
 874 1 6.77974 -11.7429 103.154
 875 1 7.97006 -10.9699 105.61
 876 1 10.0767 -9.07306 105.61
 877 1 10.9699 -7.97006 103.154
 878 1 12.3872 -5.51514 103.154
 879 1 12.8958 -4.19011 105.61
 880 1 13.4852 -1.41735 105.61
 881 1 13.5595 0 108.066
 882 1 13.2632 2.81917 108.066
 883 1 12.8958 4.19011 110.522
 884 1 11.7429 6.77974 110.522
 885 1 10.9699 7.97006 108.066
 886 1 9.07306 10.0767 108.066
 887 1 7.97006 10.9699 110.522
 888 1 5.51514 12.3872 110.522
 889 1 4.19011 12.8958 108.066
 890 1 1.41735 13.4852 108.066
 891 1 3.84106e-015 13.5595 110.522
 892 1 -2.81917 13.2632 110.522
 893 1 -4.19011 12.8958 108.066
 894 1 -6.77974 11.7429 108.066
 895 1 -7.97006 10.9699 110.522
 896 1 -10.0767 9.07306 110.522
 897 1 -10.9699 7.97006 108.066
 898 1 -12.3872 5.51514 108.066
 899 1 -12.8958 4.19011 110.522
 900 1 -13.4852 1.41735 110.522
 901 1 -13.5595 7.68212e-015 108.066
 902 1 -13.2632 -2.81917 108.066
 903 1 -12.8958 -4.19011 110.522
 904 1 -11.7429 -6.77974 110.522
 905 1 -10.9699 -7.97006 108.066
 906 1 -9.07306 -10.0767 108.066
 907 1 -7.97006 -10.9699 110.522
 908 1 -5.51514 -12.3872 110.522
 909 1 -4.19011 -12.8958 108.066
 910 1 -1.41735 -13.4852 108.066
 911 1 -1.4534e-014 -13.5595 110.522
 912 1 2.81917 -13.2632 110.522
 913 1 4.19011 -12.8958 108.066
 914 1 6.77974 -11.7429 108.066
 915 1 7.97006 -10.9699 110.522
 916 1 10.0767 -9.07306 110.522
 917 1 10.9699 -7.97006 108.066
 918 1 12.3872 -5.51514 108.066
 919 1 12.8958 -4.19011 110.522
 920 1 13.4852 -1.41735 110.522
 921 1 13.5595 0 112.978
 922 1 13.2632 2.81917 112.978
 923 1 12.8958 4.19011 115.434
 924 1 11.7429 6.77974 115.434
 925 1 10.9699 7.97006 112.978
 926 1 9.07306 10.0767 112.978
 927 1 7.97006 10.9699 115.434
 928 1 5.51514 12.3872 115.434
 929 1 4.19011 12.8958 112.978
 930 1 1.41735 13.4852 112.978
 931 1 3.84106e-015 13.5595 115.434
 932 1 -2.81917 13.2632 115.434
 933 1 -4.19011 12.8958 112.978
 934 1 -6.77974 11.7429 112.978
 935 1 -7.97006 10.9699 115.434
 936 1 -10.0767 9.07306 115.434
 937 1 -10.9699 7.97006 112.978
 938 1 -12.3872 5.51514 112.978