ITEM: TIMESTEP
0
ITEM: NUMBER OF ATOMS
6560
ITEM: BOX BOUNDS pp pp pp
-50 50
-50 50
-0.614006 200.782
ITEM: ATOMS id type xu yu zu
 1 1 13.5455 0 0
 2 1 13.4713 1.41589 0
 3 1 13.3788 2.11899 1.22802
 4 1 13.084 3.50584 1.22802
 5 1 12.8826 4.1858 0
 6 1 12.3745 5.50947 0
 7 1 12.0692 6.14955 1.22802
 8 1 11.3602 7.37743 1.22802
 9 1 10.9586 7.96187 0
 10 1 10.0663 9.06374 0
 11 1 9.57815 9.57815 1.22802
 12 1 8.52449 10.5269 1.22802
 13 1 7.96187 10.9586 0
 14 1 6.77277 11.7308 0
 15 1 6.14955 12.0692 1.22802
 16 1 4.85429 12.6459 1.22802
 17 1 4.1858 12.8826 0
 18 1 2.81628 13.2495 0
 19 1 2.11899 13.3788 1.22802
 20 1 0.708919 13.527 1.22802
 21 1 3.83711e-015 13.5455 0
 22 1 -1.41589 13.4713 0
 23 1 -2.11899 13.3788 1.22802
 24 1 -3.50584 13.084 1.22802
 25 1 -4.1858 12.8826 0
 26 1 -5.50947 12.3745 0
 27 1 -6.14955 12.0692 1.22802
 28 1 -7.37743 11.3602 1.22802
 29 1 -7.96187 10.9586 0
 30 1 -9.06374 10.0663 0
 31 1 -9.57815 9.57815 1.22802
 32 1 -10.5269 8.52449 1.22802
 33 1 -10.9586 7.96187 0
 34 1 -11.7308 6.77277 0
 35 1 -12.0692 6.14955 1.22802
 36 1 -12.6459 4.85429 1.22802
 37 1 -12.8826 4.1858 0
 38 1 -13.2495 2.81628 0
 39 1 -13.3788 2.11899 1.22802
 40 1 -13.527 0.708919 1.22802
 41 1 -13.5455 7.67423e-015 0
 42 1 -13.4713 -1.41589 0
 43 1 -13.3788 -2.11899 1.22802
 44 1 -13.084 -3.50584 1.22802
 45 1 -12.8826 -4.1858 0
 46 1 -12.3745 -5.50947 0
 47 1 -12.0692 -6.14955 1.22802
 48 1 -11.3602 -7.37743 1.22802
 49 1 -10.9586 -7.96187 0
 50 1 -10.0663 -9.06374 0
 51 1 -9.57815 -9.57815 1.22802
 52 1 -8.52449 -10.5269 1.22802
 53 1 -7.96187 -10.9586 0
 54 1 -6.77277 -11.7308 0
 55 1 -6.14955 -12.0692 1.22802
 56 1 -4.85429 -12.6459 1.22802
 57 1 -4.1858 -12.8826 0
 58 1 -2.81628 -13.2495 0
 59 1 -2.11899 -13.3788 1.22802
 60 1 -0.708919 -13.527 1.22802
 61 1 -1.45191e-014 -13.5455 0
 62 1 1.41589 -13.4713 0
 63 1 2.11899 -13.3788 1.22802
 64 1 3.50584 -13.084 1.22802
 65 1 4.1858 -12.8826 0
 66 1 5.50947 -12.3745 0
 67 1 6.14955 -12.0692 1.22802
 68 1 7.37743 -11.3602 1.22802
 69 1 7.96187 -10.9586 0
 70 1 9.06374 -10.0663 0
 71 1 9.57815 -9.57815 1.22802
 72 1 10.5269 -8.52449 1.22802
 73 1 10.9586 -7.96187 0
 74 1 11.7308 -6.77277 0
 75 1 12.0692 -6.14955 1.22802
 76 1 12.6459 -4.85429 1.22802
 77 1 12.8826 -4.1858 0
 78 1 13.2495 -2.81628 0
 79 1 13.3788 -2.11899 1.22802
 80 1 13.527 -0.708919 1.22802
 81 1 13.5455 0 2.45605
 82 1 13.4713 1.41589 2.45605
 83 1 13.3788 2.11899 3.68407
 84 1 13.084 3.50584 3.68407
 85 1 12.8826 4.1858 2.45605
 86 1 12.3745 5.50947 2.45605
 87 1 12.0692 6.14955 3.68407
 88 1 11.3602 7.37743 3.68407
 89 1 10.9586 7.96187 2.45605
 90 1 10.0663 9.06374 2.45605
 91 1 9.57815 9.57815 3.68407
 92 1 8.52449 10.5269 3.68407
 93 1 7.96187 10.9586 2.45605
 94 1 6.77277 11.7308 2.45605
 95 1 6.14955 12.0692 3.68407
 96 1 4.85429 12.6459 3.68407
 97 1 4.1858 12.8826 2.45605
 98 1 2.81628 13.2495 2.45605
 99 1 2.11899 13.3788 3.68407
 100 1 0.708919 13.527 3.68407
 101 1 3.83711e-015 13.5455 2.45605
 102 1 -1.41589 13.4713 2.45605
 103 1 -2.11899 13.3788 3.68407
 104 1 -3.50584 13.084 3.68407
 105 1 -4.1858 12.8826 2.45605
 106 1 -5.50947 12.3745 2.45605
 107 1 -6.14955 12.0692 3.68407
 108 1 -7.37743 11.3602 3.68407
 109 1 -7.96187 10.9586 2.45605
 110 1 -9.06374 10.0663 2.45605
 111 1 -9.57815 9.57815 3.68407
 112 1 -10.5269 8.52449 3.68407
 113 1 -10.9586 7.96187 2.45605
 114 1 -11.7308 6.77277 2.45605
 115 1 -12.0692 6.14955 3.68407
 116 1 -12.6459 4.85429 3.68407
 117 1 -12.8826 4.1858 2.45605
 118 1 -13.2495 2.81628 2.45605
 119 1 -13.3788 2.11899 3.68407
 120 1 -13.527 0.708919 3.68407
 121 1 -13.5455 7.67423e-015 2.45605
 122 1 -13.4713 -1.41589 2.45605
 123 1 -13.3788 -2.11899 3.68407
 124 1 -13.084 -3.50584 3.68407
 125 1 -12.8826 -4.1858 2.45605
 126 1 -12.3745 -5.50947 2.45605
 127 1 -12.0692 -6.14955 3.68407
 128 1 -11.3602 -7.37743 3.68407
 129 1 -10.9586 -7.96187 2.45605
 130 1 -10.0663 -9.06374 2.45605
 131 1 -9.57815 -9.57815 3.68407
 132 1 -8.52449 -10.5269 3.68407
 133 1 -7.96187 -10.9586 2.45605
 134 1 -6.77277 -11.7308 2.45605
 135 1 -6.14955 -12.0692 3.68407
 136 1 -4.85429 -12.6459 3.68407
 137 1 -4.1858 -12.8826 2.45605
 138 1 -2.81628 -13.2495 2.45605
 139 1 -2.11899 -13.3788 3.68407
 140 1 -0.708919 -13.527 3.68407
 141 1 -1.45191e-014 -13.5455 2.45605
 142 1 1.41589 -13.4713 2.45605
 143 1 2.11899 -13.3788 3.68407
 144 1 3.50584 -13.084 3.68407
 145 1 4.1858 -12.8826 2.45605
 146 1 5.50947 -12.3745 2.45605
 147 1 6.14955 -12.0692 3.68407
 148 1 7.37743 -11.3602 3.68407
 149 1 7.96187 -10.9586 2.45605
 150 1 9.06374 -10.0663 2.45605
 151 1 9.57815 -9.57815 3.68407
 152 1 10.5269 -8.52449 3.68407
 153 1 10.9586 -7.96187 2.45605
 154 1 11.7308 -6.77277 2.45605
 155 1 12.0692 -6.14955 3.68407
 156 1 12.6459 -4.85429 3.68407
 157 1 12.8826 -4.1858 2.45605
 158 1 13.2495 -2.81628 2.45605
 159 1 13.3788 -2.11899 3.68407
 160 1 13.527 -0.708919 3.68407
 161 1 13.5455 0 4.9121
 162 1 13.4713 1.41589 4.9121
 163 1 13.3788 2.11899 6.14012
 164 1 13.084 3.50584 6.14012
 165 1 12.8826 4.1858 4.9121
 166 1 12.3745 5.50947 4.9121
 167 1 12.0692 6.14955 6.14012
 168 1 11.3602 7.37743 6.14012
 169 1 10.9586 7.96187 4.9121
 170 1 10.0663 9.06374 4.9121
 171 1 9.57815 9.57815 6.14012
 172 1 8.52449 10.5269 6.14012
 173 1 7.96187 10.9586 4.9121
 174 1 6.77277 11.7308 4.9121
 175 1 6.14955 12.0692 6.14012
 176 1 4.85429 12.6459 6.14012
 177 1 4.1858 12.8826 4.9121
 178 1 2.81628 13.2495 4.9121
 179 1 2.11899 13.3788 6.14012
 180 1 0.708919 13.527 6.14012
 181 1 3.83711e-015 13.5455 4.9121
 182 1 -1.41589 13.4713 4.9121
 183 1 -2.11899 13.3788 6.14012
 184 1 -3.50584 13.084 6.14012
 185 1 -4.1858 12.8826 4.9121
 186 1 -5.50947 12.3745 4.9121
 187 1 -6.14955 12.0692 6.14012
 188 1 -7.37743 11.3602 6.14012
 189 1 -7.96187 10.9586 4.9121
 190 1 -9.06374 10.0663 4.9121
 191 1 -9.57815 9.57815 6.14012
 192 1 -10.5269 8.52449 6.14012
 193 1 -10.9586 7.96187 4.9121
 194 1 -11.7308 6.77277 4.9121
 195 1 -12.0692 6.14955 6.14012
 196 1 -12.6459 4.85429 6.14012
 197 1 -12.8826 4.1858 4.9121
 198 1 -13.2495 2.81628 4.9121
 199 1 -13.3788 2.11899 6.14012
 200 1 -13.527 0.708919 6.14012
 201 1 -13.5455 7.67423e-015 4.9121
 202 1 -13.4713 -1.41589 4.9121
 203 1 -13.3788 -2.11899 6.14012
 204 1 -13.084 -3.50584 6.14012
 205 1 -12.8826 -4.1858 4.9121
 206 1 -12.3745 -5.50947 4.9121
 207 1 -12.0692 -6.14955 6.14012
 208 1 -11.3602 -7.37743 6.14012
 209 1 -10.9586 -7.96187 4.9121
 210 1 -10.0663 -9.06374 4.9121
 211 1 -9.57815 -9.57815 6.14012
 212 1 -8.52449 -10.5269 6.14012
 213 1 -7.96187 -10.9586 4.9121
 214 1 -6.77277 -11.7308 4.9121
 215 1 -6.14955 -12.0692 6.14012
 216 1 -4.85429 -12.6459 6.14012
 217 1 -4.1858 -12.8826 4.9121
 218 1 -2.81628 -13.2495 4.9121
 219 1 -2.11899 -13.3788 6.14012
 220 1 -0.708919 -13.527 6.14012
 221 1 -1.45191e-014 -13.5455 4.9121
 222 1 1.41589 -13.4713 4.9121
 223 1 2.11899 -13.3788 6.14012
 224 1 3.50584 -13.084 6.14012
 225 1 4.1858 -12.8826 4.9121
 226 1 5.50947 -12.3745 4.9121
 227 1 6.14955 -12.0692 6.14012
 228 1 7.37743 -11.3602 6.14012
 229 1 7.96187 -10.9586 4.9121
 230 1 9.06374 -10.0663 4.9121
 231 1 9.57815 -9.57815 6.14012
 232 1 10.5269 -8.52449 6.14012
 233 1 10.9586 -7.96187 4.9121
 234 1 11.7308 -6.77277 4.9121
 235 1 12.0692 -6.14955 6.14012
 236 1 12.6459 -4.85429 6.14012
 237 1 12.8826 -4.1858 4.9121
 238 1 13.2495 -2.81628 4.9121
 239 1 13.3788 -2.11899 6.14012
 240 1 13.527 -0.708919 6.14012
 241 1 13.5455 0 7.36814
 242 1 13.4713 1.41589 7.36814
 243 1 13.3788 2.11899 8.59617
 244 1 13.084 3.50584 8.59617
 245 1 12.8826 4.1858 7.36814
 246 1 12.3745 5.50947 7.36814
 247 1 12.0692 6.14955 8.59617
 248 1 11.3602 7.37743 8.59617
 249 1 10.9586 7.96187 7.36814
 250 1 10.0663 9.06374 7.36814
 251 1 9.57815 9.57815 8.59617
 252 1 8.52449 10.5269 8.59617
 253 1 7.96187 10.9586 7.36814
 254 1 6.77277 11.7308 7.36814
 255 1 6.14955 12.0692 8.59617
 256 1 4.85429 12.6459 8.59617
 257 1 4.1858 12.8826 7.36814
 258 1 2.81628 13.2495 7.36814
 259 1 2.11899 13.3788 8.59617
 260 1 0.708919 13.527 8.59617
 261 1 3.83711e-015 13.5455 7.36814
 262 1 -1.41589 13.4713 7.36814
 263 1 -2.11899 13.3788 8.59617
 264 1 -3.50584 13.084 8.59617
 265 1 -4.1858 12.8826 7.36814
 266 1 -5.50947 12.3745 7.36814
 267 1 -6.14955 12.0692 8.59617
 268 1 -7.37743 11.3602 8.59617
 269 1 -7.96187 10.9586 7.36814
 270 1 -9.06374 10.0663 7.36814
 271 1 -9.57815 9.57815 8.59617
 272 1 -10.5269 8.52449 8.59617
 273 1 -10.9586 7.96187 7.36814
 274 1 -11.7308 6.77277 7.36814
 275 1 -12.0692 6.14955 8.59617
 276 1 -12.6459 4.85429 8.59617
 277 1 -12.8826 4.1858 7.36814
 278 1 -13.2495 2.81628 7.36814
 279 1 -13.3788 2.11899 8.59617
 280 1 -13.527 0.708919 8.59617
 281 1 -13.5455 7.67423e-015 7.36814
 282 1 -13.4713 -1.41589 7.36814
 283 1 -13.3788 -2.11899 8.59617
 284 1 -13.084 -3.50584 8.59617
 285 1 -12.8826 -4.1858 7.36814
 286 1 -12.3745 -5.50947 7.36814
 287 1 -12.0692 -6.14955 8.59617
 288 1 -11.3602 -7.37743 8.59617
 289 1 -10.9586 -7.96187 7.36814
 290 1 -10.0663 -9.06374 7.36814
 291 1 -9.57815 -9.57815 8.59617
 292 1 -8.52449 -10.5269 8.59617
 293 1 -7.96187 -10.9586 7.36814
 294 1 -6.77277 -11.7308 7.36814
 295 1 -6.14955 -12.0692 8.59617
 296 1 -4.85429 -12.6459 8.59617
 297 1 -4.1858 -12.8826 7.36814
 298 1 -2.81628 -13.2495 7.36814
 299 1 -2.11899 -13.3788 8.59617
 300 1 -0.708919 -13.527 8.59617
 301 1 -1.45191e-014 -13.5455 7.36814
 302 1 1.41589 -13.4713 7.36814
 303 1 2.11899 -13.3788 8.59617
 304 1 3.50584 -13.084 8.59617
 305 1 4.1858 -12.8826 7.36814
 306 1 5.50947 -12.3745 7.36814
 307 1 6.14955 -12.0692 8.59617
 308 1 7.37743 -11.3602 8.59617
 309 1 7.96187 -10.9586 7.36814
 310 1 9.06374 -10.0663 7.36814
 311 1 9.57815 -9.57815 8.59617
 312 1 10.5269 -8.52449 8.59617
 313 1 10.9586 -7.96187 7.36814
 314 1 11.7308 -6.77277 7.36814
 315 1 12.0692 -6.14955 8.59617
 316 1 12.6459 -4.85429 8.59617
 317 1 12.8826 -4.1858 7.36814
 318 1 13.2495 -2.81628 7.36814
 319 1 13.3788 -2.11899 8.59617
 320 1 13.527 -0.708919 8.59617
 321 1 13.5455 0 9.82419
 322 1 13.4713 1.41589 9.82419
 323 1 13.3788 2.11899 11.0522
 324 1 13.084 3.50584 11.0522
 325 1 12.8826 4.1858 9.82419
 326 1 12.3745 5.50947 9.82419
 327 1 12.0692 6.14955 11.0522
 328 1 11.3602 7.37743 11.0522
 329 1 10.9586 7.96187 9.82419
 330 1 10.0663 9.06374 9.82419
 331 1 9.57815 9.57815 11.0522
 332 1 8.52449 10.5269 11.0522
 333 1 7.96187 10.9586 9.82419
 334 1 6.77277 11.7308 9.82419
 335 1 6.14955 12.0692 11.0522
 336 1 4.85429 12.6459 11.0522
 337 1 4.1858 12.8826 9.82419
 338 1 2.81628 13.2495 9.82419
 339 1 2.11899 13.3788 11.0522
 340 1 0.708919 13.527 11.0522
 341 1 3.83711e-015 13.5455 9.82419
 342 1 -1.41589 13.4713 9.82419
 343 1 -2.11899 13.3788 11.0522
 344 1 -3.50584 13.084 11.0522
 345 1 -4.1858 12.8826 9.82419
 346 1 -5.50947 12.3745 9.82419
 347 1 -6.14955 12.0692 11.0522
 348 1 -7.37743 11.3602 11.0522
 349 1 -7.96187 10.9586 9.82419
 350 1 -9.06374 10.0663 9.82419
 351 1 -9.57815 9.57815 11.0522
 352 1 -10.5269 8.52449 11.0522
 353 1 -10.9586 7.96187 9.82419
 354 1 -11.7308 6.77277 9.82419
 355 1 -12.0692 6.14955 11.0522
 356 1 -12.6459 4.85429 11.0522
 357 1 -12.8826 4.1858 9.82419
 358 1 -13.2495 2.81628 9.82419
 359 1 -13.3788 2.11899 11.0522
 360 1 -13.527 0.708919 11.0522
 361 1 -13.5455 7.67423e-015 9.82419
 362 1 -13.4713 -1.41589 9.82419
 363 1 -13.3788 -2.11899 11.0522
 364 1 -13.084 -3.50584 11.0522
 365 1 -12.8826 -4.1858 9.82419
 366 1 -12.3745 -5.50947 9.82419
 367 1 -12.0692 -6.14955 11.0522
 368 1 -11.3602 -7.37743 11.0522
 369 1 -10.9586 -7.96187 9.82419
 370 1 -10.0663 -9.06374 9.82419
 371 1 -9.57815 -9.57815 11.0522
 372 1 -8.52449 -10.5269 11.0522
 373 1 -7.96187 -10.9586 9.82419
 374 1 -6.77277 -11.7308 9.82419
 375 1 -6.14955 -12.0692 11.0522
 376 1 -4.85429 -12.6459 11.0522
 377 1 -4.1858 -12.8826 9.82419
 378 1 -2.81628 -13.2495 9.82419
 379 1 -2.11899 -13.3788 11.0522
 380 1 -0.708919 -13.527 11.0522
 381 1 -1.45191e-014 -13.5455 9.82419
 382 1 1.41589 -13.4713 9.82419
 383 1 2.11899 -13.3788 11.0522
 384 1 3.50584 -13.084 11.0522
 385 1 4.1858 -12.8826 9.82419
 386 1 5.50947 -12.3745 9.82419
 387 1 6.14955 -12.0692 11.0522
 388 1 7.37743 -11.3602 11.0522
 389 1 7.96187 -10.9586 9.82419
 390 1 9.06374 -10.0663 9.82419
 391 1 9.57815 -9.57815 11.0522
 392 1 10.5269 -8.52449 11.0522
 393 1 10.9586 -7.96187 9.82419
 394 1 11.7308 -6.77277 9.82419
 395 1 12.0692 -6.14955 11.0522
 396 1 12.6459 -4.85429 11.0522
 397 1 12.8826 -4.1858 9.82419
 398 1 13.2495 -2.81628 9.82419
 399 1 13.3788 -2.11899 11.0522
 400 1 13.527 -0.708919 11.0522
 401 1 13.5455 0 12.2802
 402 1 13.4713 1.41589 12.2802
 403 1 13.3788 2.11899 13.5083
 404 1 13.084 3.50584 13.5083
 405 1 12.8826 4.1858 12.2802
 406 1 12.3745 5.50947 12.2802
 407 1 12.0692 6.14955 13.5083
 408 1 11.3602 7.37743 13.5083
 409 1 10.9586 7.96187 12.2802
 410 1 10.0663 9.06374 12.2802
 411 1 9.57815 9.57815 13.5083
 412 1 8.52449 10.5269 13.5083
 413 1 7.96187 10.9586 12.2802
 414 1 6.77277 11.7308 12.2802
 415 1 6.14955 12.0692 13.5083
 416 1 4.85429 12.6459 13.5083
 417 1 4.1858 12.8826 12.2802
 418 1 2.81628 13.2495 12.2802
 419 1 2.11899 13.3788 13.5083
 420 1 0.708919 13.527 13.5083
 421 1 3.83711e-015 13.5455 12.2802
 422 1 -1.41589 13.4713 12.2802
 423 1 -2.11899 13.3788 13.5083
 424 1 -3.50584 13.084 13.5083
 425 1 -4.1858 12.8826 12.2802
 426 1 -5.50947 12.3745 12.2802
 427 1 -6.14955 12.0692 13.5083
 428 1 -7.37743 11.3602 13.5083
 429 1 -7.96187 10.9586 12.2802
 430 1 -9.06374 10.0663 12.2802
 431 1 -9.57815 9.57815 13.5083
 432 1 -10.5269 8.52449 13.5083
 433 1 -10.9586 7.96187 12.2802
 434 1 -11.7308 6.77277 12.2802
 435 1 -12.0692 6.14955 13.5083
 436 1 -12.6459 4.85429 13.5083
 437 1 -12.8826 4.1858 12.2802
 438 1 -13.2495 2.81628 12.2802
 439 1 -13.3788 2.11899 13.5083
 440 1 -13.527 0.708919 13.5083
 441 1 -13.5455 7.67423e-015 12.2802
 442 1 -13.4713 -1.41589 12.2802
 443 1 -13.3788 -2.11899 13.5083
 444 1 -13.084 -3.50584 13.5083
 445 1 -12.8826 -4.1858 12.2802
 446 1 -12.3745 -5.50947 12.2802
 447 1 -12.0692 -6.14955 13.5083
 448 1 -11.3602 -7.37743 13.5083
 449 1 -10.9586 -7.96187 12.2802
 450 1 -10.0663 -9.06374 12.2802
 451 1 -9.57815 -9.57815 13.5083
 452 1 -8.52449 -10.5269 13.5083
 453 1 -7.96187 -10.9586 12.2802
 454 1 -6.77277 -11.7308 12.2802
 455 1 -6.14955 -12.0692 13.5083
 456 1 -4.85429 -12.6459 13.5083
 457 1 -4.1858 -12.8826 12.2802
 458 1 -2.81628 -13.2495 12.2802
 459 1 -2.11899 -13.3788 13.5083
 460 1 -0.708919 -13.527 13.5083
 461 1 -1.45191e-014 -13.5455 12.2802
 462 1 1.41589 -13.4713 12.2802
 463 1 2.11899 -13.3788 13.5083
 464 1 3.50584 -13.084 13.5083
 465 1 4.1858 -12.8826 12.2802
 466 1 5.50947 -12.3745 12.2802
 467 1 6.14955 -12.0692 13.5083
 468 1 7.37743 -11.3602 13.5083
 469 1 7.96187 -10.9586 12.2802
 470 1 9.06374 -10.0663 12.2802
 471 1 9.57815 -9.57815 13.5083
 472 1 10.5269 -8.52449 13.5083
 473 1 10.9586 -7.96187 12.2802
 474 1 11.7308 -6.77277 12.2802
 475 1 12.0692 -6.14955 13.5083
 476 1 12.6459 -4.85429 13.5083
 477 1 12.8826 -4.1858 12.2802
 478 1 13.2495 -2.81628 12.2802
 479 1 13.3788 -2.11899 13.5083
 480 1 13.527 -0.708919 13.5083
 481 1 13.5455 0 14.7363
 482 1 13.4713 1.41589 14.7363
 483 1 13.3788 2.11899 15.9643
 484 1 13.084 3.50584 15.9643
 485 1 12.8826 4.1858 14.7363
 486 1 12.3745 5.50947 14.7363
 487 1 12.0692 6.14955 15.9643
 488 1 11.3602 7.37743 15.9643
 489 1 10.9586 7.96187 14.7363
 490 1 10.0663 9.06374 14.7363
 491 1 9.57815 9.57815 15.9643
 492 1 8.52449 10.5269 15.9643
 493 1 7.96187 10.9586 14.7363
 494 1 6.77277 11.7308 14.7363
 495 1 6.14955 12.0692 15.9643
 496 1 4.85429 12.6459 15.9643
 497 1 4.1858 12.8826 14.7363
 498 1 2.81628 13.2495 14.7363
 499 1 2.11899 13.3788 15.9643
 500 1 0.708919 13.527 15.9643
 501 1 3.83711e-015 13.5455 14.7363
 502 1 -1.41589 13.4713 14.7363
 503 1 -2.11899 13.3788 15.9643
 504 1 -3.50584 13.084 15.9643
 505 1 -4.1858 12.8826 14.7363
 506 1 -5.50947 12.3745 14.7363
 507 1 -6.14955 12.0692 15.9643
 508 1 -7.37743 11.3602 15.9643
 509 1 -7.96187 10.9586 14.7363
 510 1 -9.06374 10.0663 14.7363
 511 1 -9.57815 9.57815 15.9643
 512 1 -10.5269 8.52449 15.9643
 513 1 -10.9586 7.96187 14.7363
 514 1 -11.7308 6.77277 14.7363
 515 1 -12.0692 6.14955 15.9643
 516 1 -12.6459 4.85429 15.9643
 517 1 -12.8826 4.1858 14.7363
 518 1 -13.2495 2.81628 14.7363
 519 1 -13.3788 2.11899 15.9643
 520 1 -13.527 0.708919 15.9643
 521 1 -13.5455 7.67423e-015 14.7363
 522 1 -13.4713 -1.41589 14.7363
 523 1 -13.3788 -2.11899 15.9643
 524 1 -13.084 -3.50584 15.9643
 525 1 -12.8826 -4.1858 14.7363
 526 1 -12.3745 -5.50947 14.7363
 527 1 -12.0692 -6.14955 15.9643
 528 1 -11.3602 -7.37743 15.9643
 529 1 -10.9586 -7.96187 14.7363
 530 1 -10.0663 -9.06374 14.7363
 531 1 -9.57815 -9.57815 15.9643
 532 1 -8.52449 -10.5269 15.9643
 533 1 -7.96187 -10.9586 14.7363
 534 1 -6.77277 -11.7308 14.7363
 535 1 -6.14955 -12.0692 15.9643
 536 1 -4.85429 -12.6459 15.9643
 537 1 -4.1858 -12.8826 14.7363
 538 1 -2.81628 -13.2495 14.7363
 539 1 -2.11899 -13.3788 15.9643
 540 1 -0.708919 -13.527 15.9643
 541 1 -1.45191e-014 -13.5455 14.7363
 542 1 1.41589 -13.4713 14.7363
 543 1 2.11899 -13.3788 15.9643
 544 1 3.50584 -13.084 15.9643
 545 1 4.1858 -12.8826 14.7363
 546 1 5.50947 -12.3745 14.7363
 547 1 6.14955 -12.0692 15.9643
 548 1 7.37743 -11.3602 15.9643
 549 1 7.96187 -10.9586 14.7363
 550 1 9.06374 -10.0663 14.7363
 551 1 9.57815 -9.57815 15.9643
 552 1 10.5269 -8.52449 15.9643
 553 1 10.9586 -7.96187 14.7363
 554 1 11.7308 -6.77277 14.7363
 555 1 12.0692 -6.14955 15.9643
 556 1 12.6459 -4.85429 15.9643
 557 1 12.8826 -4.1858 14.7363
 558 1 13.2495 -2.81628 14.7363
 559 1 13.3788 -2.11899 15.9643
 560 1 13.527 -0.708919 15.9643
 561 1 13.5455 0 17.1923
 562 1 13.4713 1.41589 17.1923
 563 1 13.3788 2.11899 18.4204
 564 1 13.084 3.50584 18.4204
 565 1 12.8826 4.1858 17.1923
 566 1 12.3745 5.50947 17.1923
 567 1 12.0692 6.14955 18.4204
 568 1 11.3602 7.37743 18.4204
 569 1 10.9586 7.96187 17.1923
 570 1 10.0663 9.06374 17.1923
 571 1 9.57815 9.57815 18.4204
 572 1 8.52449 10.5269 18.4204
 573 1 7.96187 10.9586 17.1923
 574 1 6.77277 11.7308 17.1923
 575 1 6.14955 12.0692 18.4204
 576 1 4.85429 12.6459 18.4204
 577 1 4.1858 12.8826 17.1923
 578 1 2.81628 13.2495 17.1923
 579 1 2.11899 13.3788 18.4204
 580 1 0.708919 13.527 18.4204
 581 1 3.83711e-015 13.5455 17.1923
 582 1 -1.41589 13.4713 17.1923
 583 1 -2.11899 13.3788 18.4204
 584 1 -3.50584 13.084 18.4204
 585 1 -4.1858 12.8826 17.1923
 586 1 -5.50947 12.3745 17.1923
 587 1 -6.14955 12.0692 18.4204
 588 1 -7.37743 11.3602 18.4204
 589 1 -7.96187 10.9586 17.1923
 590 1 -9.06374 10.0663 17.1923
 591 1 -9.57815 9.57815 18.4204
 592 1 -10.5269 8.52449 18.4204
 593 1 -10.9586 7.96187 17.1923
 594 1 -11.7308 6.77277 17.1923
 595 1 -12.0692 6.14955 18.4204
 596 1 -12.6459 4.85429 18.4204
 597 1 -12.8826 4.1858 17.1923
 598 1 -13.2495 2.81628 17.1923
 599 1 -13.3788 2.11899 18.4204
 600 1 -13.527 0.708919 18.4204
 601 1 -13.5455 7.67423e-015 17.1923
 602 1 -13.4713 -1.41589 17.1923
 603 1 -13.3788 -2.11899 18.4204
 604 1 -13.084 -3.50584 18.4204
 605 1 -12.8826 -4.1858 17.1923
 606 1 -12.3745 -5.50947 17.1923
 607 1 -12.0692 -6.14955 18.4204
 608 1 -11.3602 -7.37743 18.4204
 609 1 -10.9586 -7.96187 17.1923
 610 1 -10.0663 -9.06374 17.1923
 611 1 -9.57815 -9.57815 18.4204
 612 1 -8.52449 -10.5269 18.4204
 613 1 -7.96187 -10.9586 17.1923
 614 1 -6.77277 -11.7308 17.1923
 615 1 -6.14955 -12.0692 18.4204
 616 1 -4.85429 -12.6459 18.4204
 617 1 -4.1858 -12.8826 17.1923
 618 1 -2.81628 -13.2495 17.1923
 619 1 -2.11899 -13.3788 18.4204
 620 1 -0.708919 -13.527 18.4204
 621 1 -1.45191e-014 -13.5455 17.1923
 622 1 1.41589 -13.4713 17.1923
 623 1 2.11899 -13.3788 18.4204
 624 1 3.50584 -13.084 18.4204
 625 1 4.1858 -12.8826 17.1923
 626 1 5.50947 -12.3745 17.1923
 627 1 6.14955 -12.0692 18.4204
 628 1 7.37743 -11.3602 18.4204
 629 1 7.96187 -10.9586 17.1923
 630 1 9.06374 -10.0663 17.1923
 631 1 9.57815 -9.57815 18.4204
 632 1 10.5269 -8.52449 18.4204
 633 1 10.9586 -7.96187 17.1923
 634 1 11.7308 -6.77277 17.1923
 635 1 12.0692 -6.14955 18.4204
 636 1 12.6459 -4.85429 18.4204
 637 1 12.8826 -4.1858 17.1923
 638 1 13.2495 -2.81628 17.1923
 639 1 13.3788 -2.11899 18.4204
 640 1 13.527 -0.708919 18.4204
 641 1 13.5455 0 19.6484
 642 1 13.4713 1.41589 19.6484
 643 1 13.3788 2.11899 20.8764
 644 1 13.084 3.50584 20.8764
 645 1 12.8826 4.1858 19.6484
 646 1 12.3745 5.50947 19.6484
 647 1 12.0692 6.14955 20.8764
 648 1 11.3602 7.37743 20.8764
 649 1 10.9586 7.96187 19.6484
 650 1 10.0663 9.06374 19.6484
 651 1 9.57815 9.57815 20.8764
 652 1 8.52449 10.5269 20.8764
 653 1 7.96187 10.9586 19.6484
 654 1 6.77277 11.7308 19.6484
 655 1 6.14955 12.0692 20.8764
 656 1 4.85429 12.6459 20.8764
 657 1 4.1858 12.8826 19.6484
 658 1 2.81628 13.2495 19.6484
 659 1 2.11899 13.3788 20.8764
 660 1 0.708919 13.527 20.8764
 661 1 3.83711e-015 13.5455 19.6484
 662 1 -1.41589 13.4713 19.6484
 663 1 -2.11899 13.3788 20.8764
 664 1 -3.50584 13.084 20.8764
 665 1 -4.1858 12.8826 19.6484
 666 1 -5.50947 12.3745 19.6484
 667 1 -6.14955 12.0692 20.8764
 668 1 -7.37743 11.3602 20.8764
 669 1 -7.96187 10.9586 19.6484
 670 1 -9.06374 10.0663 19.6484
 671 1 -9.57815 9.57815 20.8764
 672 1 -10.5269 8.52449 20.8764
 673 1 -10.9586 7.96187 19.6484
 674 1 -11.7308 6.77277 19.6484
 675 1 -12.0692 6.14955 20.8764
 676 1 -12.6459 4.85429 20.8764
 677 1 -12.8826 4.1858 19.6484
 678 1 -13.2495 2.81628 19.6484
 679 1 -13.3788 2.11899 20.8764
 680 1 -13.527 0.708919 20.8764
 681 1 -13.5455 7.67423e-015 19.6484
 682 1 -13.4713 -1.41589 19.6484
 683 1 -13.3788 -2.11899 20.8764
 684 1 -13.084 -3.50584 20.8764
 685 1 -12.8826 -4.1858 19.6484
 686 1 -12.3745 -5.50947 19.6484
 687 1 -12.0692 -6.14955 20.8764
 688 1 -11.3602 -7.37743 20.8764
 689 1 -10.9586 -7.96187 19.6484
 690 1 -10.0663 -9.06374 19.6484
 691 1 -9.57815 -9.57815 20.8764
 692 1 -8.52449 -10.5269 20.8764
 693 1 -7.96187 -10.9586 19.6484
 694 1 -6.77277 -11.7308 19.6484
 695 1 -6.14955 -12.0692 20.8764
 696 1 -4.85429 -12.6459 20.8764
 697 1 -4.1858 -12.8826 19.6484
 698 1 -2.81628 -13.2495 19.6484
 699 1 -2.11899 -13.3788 20.8764
 700 1 -0.708919 -13.527 20.8764
 701 1 -1.45191e-014 -13.5455 19.6484
 702 1 1.41589 -13.4713 19.6484
 703 1 2.11899 -13.3788 20.8764
 704 1 3.50584 -13.084 20.8764
 705 1 4.1858 -12.8826 19.6484
 706 1 5.50947 -12.3745 19.6484
 707 1 6.14955 -12.0692 20.8764
 708 1 7.37743 -11.3602 20.8764
 709 1 7.96187 -10.9586 19.6484
 710 1 9.06374 -10.0663 19.6484
 711 1 9.57815 -9.57815 20.8764
 712 1 10.5269 -8.52449 20.8764
 713 1 10.9586 -7.96187 19.6484
 714 1 11.7308 -6.77277 19.6484
 715 1 12.0692 -6.14955 20.8764
 716 1 12.6459 -4.85429 20.8764
 717 1 12.8826 -4.1858 19.6484
 718 1 13.2495 -2.81628 19.6484
 719 1 13.3788 -2.11899 20.8764
 720 1 13.527 -0.708919 20.8764
 721 1 13.5455 0 22.1044
 722 1 13.4713 1.41589 22.1044
 723 1 13.3788 2.11899 23.3325
 724 1 13.084 3.50584 23.3325
 725 1 12.8826 4.1858 22.1044
 726 1 12.3745 5.50947 22.1044
 727 1 12.0692 6.14955 23.3325
 728 1 11.3602 7.37743 23.3325
 729 1 10.9586 7.96187 22.1044
 730 1 10.0663 9.06374 22.1044
 731 1 9.57815 9.57815 23.3325
 732 1 8.52449 10.5269 23.3325
 733 1 7.96187 10.9586 22.1044
 734 1 6.77277 11.7308 22.1044
 735 1 6.14955 12.0692 23.3325
 736 1 4.85429 12.6459 23.3325
 737 1 4.1858 12.8826 22.1044
 738 1 2.81628 13.2495 22.1044
 739 1 2.11899 13.3788 23.3325
 740 1 0.708919 13.527 23.3325
 741 1 3.83711e-015 13.5455 22.1044
 742 1 -1.41589 13.4713 22.1044
 743 1 -2.11899 13.3788 23.3325
 744 1 -3.50584 13.084 23.3325
 745 1 -4.1858 12.8826 22.1044
 746 1 -5.50947 12.3745 22.1044
 747 1 -6.14955 12.0692 23.3325
 748 1 -7.37743 11.3602 23.3325
 749 1 -7.96187 10.9586 22.1044
 750 1 -9.06374 10.0663 22.1044
 751 1 -9.57815 9.57815 23.3325
 752 1 -10.5269 8.52449 23.3325
 753 1 -10.9586 7.96187 22.1044
 754 1 -11.7308 6.77277 22.1044
 755 1 -12.0692 6.14955 23.3325
 756 1 -12.6459 4.85429 23.3325
 757 1 -12.8826 4.1858 22.1044
 758 1 -13.2495 2.81628 22.1044
 759 1 -13.3788 2.11899 23.3325
 760 1 -13.527 0.708919 23.3325
 761 1 -13.5455 7.67423e-015 22.1044
 762 1 -13.4713 -1.41589 22.1044
 763 1 -13.3788 -2.11899 23.3325
 764 1 -13.084 -3.50584 23.3325
 765 1 -12.8826 -4.1858 22.1044
 766 1 -12.3745 -5.50947 22.1044
 767 1 -12.0692 -6.14955 23.3325
 768 1 -11.3602 -7.37743 23.3325
 769 1 -10.9586 -7.96187 22.1044
 770 1 -10.0663 -9.06374 22.1044
 771 1 -9.57815 -9.57815 23.3325
 772 1 -8.52449 -10.5269 23.3325
 773 1 -7.96187 -10.9586 22.1044
 774 1 -6.77277 -11.7308 22.1044
 775 1 -6.14955 -12.0692 23.3325
 776 1 -4.85429 -12.6459 23.3325
 777 1 -4.1858 -12.8826 22.1044
 778 1 -2.81628 -13.2495 22.1044
 779 1 -2.11899 -13.3788 23.3325
 780 1 -0.708919 -13.527 23.3325
 781 1 -1.45191e-014 -13.5455 22.1044
 782 1 1.41589 -13.4713 22.1044
 783 1 2.11899 -13.3788 23.3325
 784 1 3.50584 -13.084 23.3325
 785 1 4.1858 -12.8826 22.1044
 786 1 5.50947 -12.3745 22.1044
 787 1 6.14955 -12.0692 23.3325
 788 1 7.37743 -11.3602 23.3325
 789 1 7.96187 -10.9586 22.1044
 790 1 9.06374 -10.0663 22.1044
 791 1 9.57815 -9.57815 23.3325
 792 1 10.5269 -8.52449 23.3325
 793 1 10.9586 -7.96187 22.1044
 794 1 11.7308 -6.77277 22.1044
 795 1 12.0692 -6.14955 23.3325
 796 1 12.6459 -4.85429 23.3325
 797 1 12.8826 -4.1858 22.1044
 798 1 13.2495 -2.81628 22.1044
 799 1 13.3788 -2.11899 23.3325
 800 1 13.527 -0.708919 23.3325
 801 1 13.5455 0 24.5605
 802 1 13.4713 1.41589 24.5605
 803 1 13.3788 2.11899 25.7885
 804 1 13.084 3.50584 25.7885
 805 1 12.8826 4.1858 24.5605
 806 1 12.3745 5.50947 24.5605
 807 1 12.0692 6.14955 25.7885
 808 1 11.3602 7.37743 25.7885
 809 1 10.9586 7.96187 24.5605
 810 1 10.0663 9.06374 24.5605
 811 1 9.57815 9.57815 25.7885
 812 1 8.52449 10.5269 25.7885
 813 1 7.96187 10.9586 24.5605
 814 1 6.77277 11.7308 24.5605
 815 1 6.14955 12.0692 25.7885
 816 1 4.85429 12.6459 25.7885
 817 1 4.1858 12.8826 24.5605
 818 1 2.81628 13.2495 24.5605
 819 1 2.11899 13.3788 25.7885
 820 1 0.708919 13.527 25.7885
 821 1 3.83711e-015 13.5455 24.5605
 822 1 -1.41589 13.4713 24.5605
 823 1 -2.11899 13.3788 25.7885
 824 1 -3.50584 13.084 25.7885
 825 1 -4.1858 12.8826 24.5605
 826 1 -5.50947 12.3745 24.5605
 827 1 -6.14955 12.0692 25.7885
 828 1 -7.37743 11.3602 25.7885
 829 1 -7.96187 10.9586 24.5605
 830 1 -9.06374 10.0663 24.5605
 831 1 -9.57815 9.57815 25.7885
 832 1 -10.5269 8.52449 25.7885
 833 1 -10.9586 7.96187 24.5605
 834 1 -11.7308 6.77277 24.5605
 835 1 -12.0692 6.14955 25.7885
 836 1 -12.6459 4.85429 25.7885
 837 1 -12.8826 4.1858 24.5605
 838 1 -13.2495 2.81628 24.5605
 839 1 -13.3788 2.11899 25.7885
 840 1 -13.527 0.708919 25.7885
 841 1 -13.5455 7.67423e-015 24.5605
 842 1 -13.4713 -1.41589 24.5605
 843 1 -13.3788 -2.11899 25.7885
 844 1 -13.084 -3.50584 25.7885
 845 1 -12.8826 -4.1858 24.5605
 846 1 -12.3745 -5.50947 24.5605
 847 1 -12.0692 -6.14955 25.7885
 848 1 -11.3602 -7.37743 25.7885
 849 1 -10.9586 -7.96187 24.5605
 850 1 -10.0663 -9.06374 24.5605
 851 1 -9.57815 -9.57815 25.7885
 852 1 -8.52449 -10.5269 25.7885
 853 1 -7.96187 -10.9586 24.5605
 854 1 -6.77277 -11.7308 24.5605
 855 1 -6.14955 -12.0692 25.7885
 856 1 -4.85429 -12.6459 25.7885
 857 1 -4.1858 -12.8826 24.5605
 858 1 -2.81628 -13.2495 24.5605
 859 1 -2.11899 -13.3788 25.7885
 860 1 -0.708919 -13.527 25.7885
 861 1 -1.45191e-014 -13.5455 24.5605
 862 1 1.41589 -13.4713 24.5605
 863 1 2.11899 -13.3788 25.7885
 864 1 3.50584 -13.084 25.7885
 865 1 4.1858 -12.8826 24.5605
 866 1 5.50947 -12.3745 24.5605
 867 1 6.14955 -12.0692 25.7885
 868 1 7.37743 -11.3602 25.7885
 869 1 7.96187 -10.9586 24.5605
 870 1 9.06374 -10.0663 24.5605
 871 1 9.57815 -9.57815 25.7885
 872 1 10.5269 -8.52449 25.7885
 873 1 10.9586 -7.96187 24.5605
 874 1 11.7308 -6.77277 24.5605
 875 1 12.0692 -6.14955 25.7885
 876 1 12.6459 -4.85429 25.7885
 877 1 12.8826 -4.1858 24.5605
 878 1 13.2495 -2.81628 24.5605
 879 1 13.3788 -2.11899 25.7885
 880 1 13.527 -0.708919 25.7885
 881 1 13.5455 0 27.0165
 882 1 13.4713 1.41589 27.0165
 883 1 13.3788 2.11899 28.2446
 884 1 13.084 3.50584 28.2446
 885 1 12.8826 4.1858 27.0165
 886 1 12.3745 5.50947 27.0165
 887 1 12.0692 6.14955 28.2446
 888 1 11.3602 7.37743 28.2446
 889 1 10.9586 7.96187 27.0165
 890 1 10.0663 9.06374 27.0165
 891 1 9.57815 9.57815 28.2446
 892 1 8.52449 10.5269 28.2446
 893 1 7.96187 10.9586 27.0165
 894 1 6.77277 11.7308 27.0165
 895 1 6.14955 12.0692 28.2446
 896 1 4.85429 12.6459 28.2446
 897 1 4.1858 12.8826 27.0165
 898 1 2.81628 13.2495 27.0165
 899 1 2.11899 13.3788 28.2446
 900 1 0.708919 13.527 28.2446
 901 1 3.83711e-015 13.5455 27.0165
 902 1 -1.41589 13.4713 27.0165
 903 1 -2.11899 13.3788 28.2446
 904 1 -3.50584 13.084 28.2446
 905 1 -4.1858 12.8826 27.0165
 906 1 -5.50947 12.3745 27.0165
 907 1 -6.14955 12.0692 28.2446
 908 1 -7.37743 11.3602 28.2446
 909 1 -7.96187 10.9586 27.0165
 910 1 -9.06374 10.0663 27.0165
 911 1 -9.57815 9.57815 28.2446
 912 1 -10.5269 8.52449 28.2446
 913 1 -10.9586 7.96187 27.0165
 914 1 -11.7308 6.77277 27.0165
 915 1 -12.0692 6.14955 28.2446
 916 1 -12.6459 4.85429 28.2446
 917 1 -12.8826 4.1858 27.0165
 918 1 -13.2495 2.81628 27.0165
 919 1 -13.3788 2.11899 28.2446
 920 1 -13.527 0.708919 28.2446
 921 1 -13.5455 7.67423e-015 27.0165
 922 1 -13.4713 -1.41589 27.0165
 923 1 -13.3788 -2.11899 28.2446
 924 1 -13.084 -3.50584 28.2446
 925 1 -12.8826 -4.1858 27.0165
 926 1 -12.3745 -5.50947 27.0165
 927 1 -12.0692 -6.14955 28.2446
 928 1 -11.3602 -7.37743 28.2446
 929 1 -10.9586 -7.96187 27.0165
 930 1 -10.0663 -9.06374 27.0165
 931 1 -9.57815 -9.57815 28.2446
 932 1 -8.52449 -10.5269 28.2446
 933 1 -7.96187 -10.9586 27.0165
 934 1 -6.77277 -11.7308 27.0165
 935 1 -6.14955 -12.0692 28.2446
 936 1 -4.85429 -12.6459 28.2446
 937 1 -4.1858 -12.8826 27.0165
 938 1 -2.81628 -13.2495 27.0165
 939 1 -2.11899 -13.3788 28.2446
 940 1 -0.708919 -13.527 28.2446
 941 1 -1.45191e-014 -13.5455 27.0165
 942 1 1.41589 -13.4713 27.0165
 943 1 2.11899 -13.3788 28.2446
 944 1 3.50584 -13.084 28.2446
 945 1 4.1858 -12.8826 27.0165
 946 1 5.50947 -12.3745 27.0165
 947 1 6.14955 -12.0692 28.2446