ITEM: TIMESTEP
0
ITEM: NUMBER OF ATOMS
11644
ITEM: BOX BOUNDS ss ss ss
-5 110
-5 310
-1 1
ITEM: ATOMS id type xu yu zu
 1 1 0 0 0
 2 1 -1.22802 0.709 0
 3 1 -1.22802 2.127 0
 4 1 0 2.836 0
 5 1 2.45605 0 0
 6 1 1.22802 0.709 0
 7 1 1.22802 2.127 0
 8 1 2.45605 2.836 0
 9 1 4.9121 0 0
 10 1 3.68407 0.709 0
 11 1 3.68407 2.127 0
 12 1 4.9121 2.836 0
 13 1 7.36814 0 0
 14 1 6.14012 0.709 0
 15 1 6.14012 2.127 0
 16 1 7.36814 2.836 0
 17 1 9.82419 0 0
 18 1 8.59617 0.709 0
 19 1 8.59617 2.127 0
 20 1 9.82419 2.836 0
 21 1 12.2802 0 0
 22 1 11.0522 0.709 0
 23 1 11.0522 2.127 0
 24 1 12.2802 2.836 0
 25 1 14.7363 0 0
 26 1 13.5083 0.709 0
 27 1 13.5083 2.127 0
 28 1 14.7363 2.836 0
 29 1 17.1923 0 0
 30 1 15.9643 0.709 0
 31 1 15.9643 2.127 0
 32 1 17.1923 2.836 0
 33 1 19.6484 0 0
 34 1 18.4204 0.709 0
 35 1 18.4204 2.127 0
 36 1 19.6484 2.836 0
 37 1 22.1044 0 0
 38 1 20.8764 0.709 0
 39 1 20.8764 2.127 0
 40 1 22.1044 2.836 0
 41 1 24.5605 0 0
 42 1 23.3325 0.709 0
 43 1 23.3325 2.127 0
 44 1 24.5605 2.836 0
 45 1 27.0165 0 0
 46 1 25.7885 0.709 0
 47 1 25.7885 2.127 0
 48 1 27.0165 2.836 0
 49 1 29.4726 0 0
 50 1 28.2446 0.709 0
 51 1 28.2446 2.127 0
 52 1 29.4726 2.836 0
 53 1 31.9286 0 0
 54 1 30.7006 0.709 0
 55 1 30.7006 2.127 0
 56 1 31.9286 2.836 0
 57 1 34.3847 0 0
 58 1 33.1566 0.709 0
 59 1 33.1566 2.127 0
 60 1 34.3847 2.836 0
 61 1 36.8407 0 0
 62 1 35.6127 0.709 0
 63 1 35.6127 2.127 0
 64 1 36.8407 2.836 0
 65 1 39.2968 0 0
 66 1 38.0687 0.709 0
 67 1 38.0687 2.127 0
 68 1 39.2968 2.836 0
 69 1 41.7528 0 0
 70 1 40.5248 0.709 0
 71 1 40.5248 2.127 0
 72 1 41.7528 2.836 0
 73 1 44.2089 0 0
 74 1 42.9808 0.709 0
 75 1 42.9808 2.127 0
 76 1 44.2089 2.836 0
 77 1 46.6649 0 0
 78 1 45.4369 0.709 0
 79 1 45.4369 2.127 0
 80 1 46.6649 2.836 0
 81 1 49.121 0 0
 82 1 47.8929 0.709 0
 83 1 47.8929 2.127 0
 84 1 49.121 2.836 0
 85 1 51.577 0 0
 86 1 50.349 0.709 0
 87 1 50.349 2.127 0
 88 1 51.577 2.836 0
 89 1 54.0331 0 0
 90 1 52.805 0.709 0
 91 1 52.805 2.127 0
 92 1 54.0331 2.836 0
 93 1 56.4891 0 0
 94 1 55.2611 0.709 0
 95 1 55.2611 2.127 0
 96 1 56.4891 2.836 0
 97 1 58.9452 0 0
 98 1 57.7171 0.709 0
 99 1 57.7171 2.127 0
 100 1 58.9452 2.836 0
 101 1 61.4012 0 0
 102 1 60.1732 0.709 0
 103 1 60.1732 2.127 0
 104 1 61.4012 2.836 0
 105 1 63.8573 0 0
 106 1 62.6292 0.709 0
 107 1 62.6292 2.127 0
 108 1 63.8573 2.836 0
 109 1 66.3133 0 0
 110 1 65.0853 0.709 0
 111 1 65.0853 2.127 0
 112 1 66.3133 2.836 0
 113 1 68.7693 0 0
 114 1 67.5413 0.709 0
 115 1 67.5413 2.127 0
 116 1 68.7693 2.836 0
 117 1 71.2254 0 0
 118 1 69.9974 0.709 0
 119 1 69.9974 2.127 0
 120 1 71.2254 2.836 0
 121 1 73.6814 0 0
 122 1 72.4534 0.709 0
 123 1 72.4534 2.127 0
 124 1 73.6814 2.836 0
 125 1 76.1375 0 0
 126 1 74.9095 0.709 0
 127 1 74.9095 2.127 0
 128 1 76.1375 2.836 0
 129 1 78.5935 0 0
 130 1 77.3655 0.709 0
 131 1 77.3655 2.127 0
 132 1 78.5935 2.836 0
 133 1 81.0496 0 0
 134 1 79.8216 0.709 0
 135 1 79.8216 2.127 0
 136 1 81.0496 2.836 0
 137 1 83.5056 0 0
 138 1 82.2776 0.709 0
 139 1 82.2776 2.127 0
 140 1 83.5056 2.836 0
 141 1 85.9617 0 0
 142 1 84.7337 0.709 0
 143 1 84.7337 2.127 0
 144 1 85.9617 2.836 0
 145 1 88.4177 0 0
 146 1 87.1897 0.709 0
 147 1 87.1897 2.127 0
 148 1 88.4177 2.836 0
 149 1 90.8738 0 0
 150 1 89.6458 0.709 0
 151 1 89.6458 2.127 0
 152 1 90.8738 2.836 0
 153 1 93.3298 0 0
 154 1 92.1018 0.709 0
 155 1 92.1018 2.127 0
 156 1 93.3298 2.836 0
 157 1 95.7859 0 0
 158 1 94.5578 0.709 0
 159 1 94.5578 2.127 0
 160 1 95.7859 2.836 0
 161 1 98.2419 0 0
 162 1 97.0139 0.709 0
 163 1 97.0139 2.127 0
 164 1 98.2419 2.836 0
 165 1 0 4.254 0
 166 1 -1.22802 4.963 0
 167 1 -1.22802 6.381 0
 168 1 0 7.09 0
 169 1 2.45605 4.254 0
 170 1 1.22802 4.963 0
 171 1 1.22802 6.381 0
 172 1 2.45605 7.09 0
 173 1 4.9121 4.254 0
 174 1 3.68407 4.963 0
 175 1 3.68407 6.381 0
 176 1 4.9121 7.09 0
 177 1 7.36814 4.254 0
 178 1 6.14012 4.963 0
 179 1 6.14012 6.381 0
 180 1 7.36814 7.09 0
 181 1 9.82419 4.254 0
 182 1 8.59617 4.963 0
 183 1 8.59617 6.381 0
 184 1 9.82419 7.09 0
 185 1 12.2802 4.254 0
 186 1 11.0522 4.963 0
 187 1 11.0522 6.381 0
 188 1 12.2802 7.09 0
 189 1 14.7363 4.254 0
 190 1 13.5083 4.963 0
 191 1 13.5083 6.381 0
 192 1 14.7363 7.09 0
 193 1 17.1923 4.254 0
 194 1 15.9643 4.963 0
 195 1 15.9643 6.381 0
 196 1 17.1923 7.09 0
 197 1 19.6484 4.254 0
 198 1 18.4204 4.963 0
 199 1 18.4204 6.381 0
 200 1 19.6484 7.09 0
 201 1 22.1044 4.254 0
 202 1 20.8764 4.963 0
 203 1 20.8764 6.381 0
 204 1 22.1044 7.09 0
 205 1 24.5605 4.254 0
 206 1 23.3325 4.963 0
 207 1 23.3325 6.381 0
 208 1 24.5605 7.09 0
 209 1 27.0165 4.254 0
 210 1 25.7885 4.963 0
 211 1 25.7885 6.381 0
 212 1 27.0165 7.09 0
 213 1 29.4726 4.254 0
 214 1 28.2446 4.963 0
 215 1 28.2446 6.381 0
 216 1 29.4726 7.09 0
 217 1 31.9286 4.254 0
 218 1 30.7006 4.963 0
 219 1 30.7006 6.381 0
 220 1 31.9286 7.09 0
 221 1 34.3847 4.254 0
 222 1 33.1566 4.963 0
 223 1 33.1566 6.381 0
 224 1 34.3847 7.09 0
 225 1 36.8407 4.254 0
 226 1 35.6127 4.963 0
 227 1 35.6127 6.381 0
 228 1 36.8407 7.09 0
 229 1 39.2968 4.254 0
 230 1 38.0687 4.963 0
 231 1 38.0687 6.381 0
 232 1 39.2968 7.09 0
 233 1 41.7528 4.254 0
 234 1 40.5248 4.963 0
 235 1 40.5248 6.381 0
 236 1 41.7528 7.09 0
 237 1 44.2089 4.254 0
 238 1 42.9808 4.963 0
 239 1 42.9808 6.381 0
 240 1 44.2089 7.09 0
 241 1 46.6649 4.254 0
 242 1 45.4369 4.963 0
 243 1 45.4369 6.381 0
 244 1 46.6649 7.09 0
 245 1 49.121 4.254 0
 246 1 47.8929 4.963 0
 247 1 47.8929 6.381 0
 248 1 49.121 7.09 0
 249 1 51.577 4.254 0
 250 1 50.349 4.963 0
 251 1 50.349 6.381 0
 252 1 51.577 7.09 0
 253 1 54.0331 4.254 0
 254 1 52.805 4.963 0
 255 1 52.805 6.381 0
 256 1 54.0331 7.09 0
 257 1 56.4891 4.254 0
 258 1 55.2611 4.963 0
 259 1 55.2611 6.381 0
 260 1 56.4891 7.09 0
 261 1 58.9452 4.254 0
 262 1 57.7171 4.963 0
 263 1 57.7171 6.381 0
 264 1 58.9452 7.09 0
 265 1 61.4012 4.254 0
 266 1 60.1732 4.963 0
 267 1 60.1732 6.381 0
 268 1 61.4012 7.09 0
 269 1 63.8573 4.254 0
 270 1 62.6292 4.963 0
 271 1 62.6292 6.381 0
 272 1 63.8573 7.09 0
 273 1 66.3133 4.254 0
 274 1 65.0853 4.963 0
 275 1 65.0853 6.381 0
 276 1 66.3133 7.09 0
 277 1 68.7693 4.254 0
 278 1 67.5413 4.963 0
 279 1 67.5413 6.381 0
 280 1 68.7693 7.09 0
 281 1 71.2254 4.254 0
 282 1 69.9974 4.963 0
 283 1 69.9974 6.381 0
 284 1 71.2254 7.09 0
 285 1 73.6814 4.254 0
 286 1 72.4534 4.963 0
 287 1 72.4534 6.381 0
 288 1 73.6814 7.09 0
 289 1 76.1375 4.254 0
 290 1 74.9095 4.963 0
 291 1 74.9095 6.381 0
 292 1 76.1375 7.09 0
 293 1 78.5935 4.254 0
 294 1 77.3655 4.963 0
 295 1 77.3655 6.381 0
 296 1 78.5935 7.09 0
 297 1 81.0496 4.254 0
 298 1 79.8216 4.963 0
 299 1 79.8216 6.381 0
 300 1 81.0496 7.09 0
 301 1 83.5056 4.254 0
 302 1 82.2776 4.963 0
 303 1 82.2776 6.381 0
 304 1 83.5056 7.09 0
 305 1 85.9617 4.254 0
 306 1 84.7337 4.963 0
 307 1 84.7337 6.381 0
 308 1 85.9617 7.09 0
 309 1 88.4177 4.254 0
 310 1 87.1897 4.963 0
 311 1 87.1897 6.381 0
 312 1 88.4177 7.09 0
 313 1 90.8738 4.254 0
 314 1 89.6458 4.963 0
 315 1 89.6458 6.381 0
 316 1 90.8738 7.09 0
 317 1 93.3298 4.254 0
 318 1 92.1018 4.963 0
 319 1 92.1018 6.381 0
 320 1 93.3298 7.09 0
 321 1 95.7859 4.254 0
 322 1 94.5578 4.963 0
 323 1 94.5578 6.381 0
 324 1 95.7859 7.09 0
 325 1 98.2419 4.254 0
 326 1 97.0139 4.963 0
 327 1 97.0139 6.381 0
 328 1 98.2419 7.09 0
 329 1 0 8.508 0
 330 1 -1.22802 9.217 0
 331 1 -1.22802 10.635 0
 332 1 0 11.344 0
 333 1 2.45605 8.508 0
 334 1 1.22802 9.217 0
 335 1 1.22802 10.635 0
 336 1 2.45605 11.344 0
 337 1 4.9121 8.508 0
 338 1 3.68407 9.217 0
 339 1 3.68407 10.635 0
 340 1 4.9121 11.344 0
 341 1 7.36814 8.508 0
 342 1 6.14012 9.217 0
 343 1 6.14012 10.635 0
 344 1 7.36814 11.344 0
 345 1 9.82419 8.508 0
 346 1 8.59617 9.217 0
 347 1 8.59617 10.635 0
 348 1 9.82419 11.344 0
 349 1 12.2802 8.508 0
 350 1 11.0522 9.217 0
 351 1 11.0522 10.635 0
 352 1 12.2802 11.344 0
 353 1 14.7363 8.508 0
 354 1 13.5083 9.217 0
 355 1 13.5083 10.635 0
 356 1 14.7363 11.344 0
 357 1 17.1923 8.508 0
 358 1 15.9643 9.217 0
 359 1 15.9643 10.635 0
 360 1 17.1923 11.344 0
 361 1 19.6484 8.508 0
 362 1 18.4204 9.217 0
 363 1 18.4204 10.635 0
 364 1 19.6484 11.344 0
 365 1 22.1044 8.508 0
 366 1 20.8764 9.217 0
 367 1 20.8764 10.635 0
 368 1 22.1044 11.344 0
 369 1 24.5605 8.508 0
 370 1 23.3325 9.217 0
 371 1 23.3325 10.635 0
 372 1 24.5605 11.344 0
 373 1 27.0165 8.508 0
 374 1 25.7885 9.217 0
 375 1 25.7885 10.635 0
 376 1 27.0165 11.344 0
 377 1 29.4726 8.508 0
 378 1 28.2446 9.217 0
 379 1 28.2446 10.635 0
 380 1 29.4726 11.344 0
 381 1 31.9286 8.508 0
 382 1 30.7006 9.217 0
 383 1 30.7006 10.635 0
 384 1 31.9286 11.344 0
 385 1 34.3847 8.508 0
 386 1 33.1566 9.217 0
 387 1 33.1566 10.635 0
 388 1 34.3847 11.344 0
 389 1 36.8407 8.508 0
 390 1 35.6127 9.217 0
 391 1 35.6127 10.635 0
 392 1 36.8407 11.344 0
 393 1 39.2968 8.508 0
 394 1 38.0687 9.217 0
 395 1 38.0687 10.635 0
 396 1 39.2968 11.344 0
 397 1 41.7528 8.508 0
 398 1 40.5248 9.217 0
 399 1 40.5248 10.635 0
 400 1 41.7528 11.344 0
 401 1 44.2089 8.508 0
 402 1 42.9808 9.217 0
 403 1 42.9808 10.635 0
 404 1 44.2089 11.344 0
 405 1 46.6649 8.508 0
 406 1 45.4369 9.217 0
 407 1 45.4369 10.635 0
 408 1 46.6649 11.344 0
 409 1 49.121 8.508 0
 410 1 47.8929 9.217 0
 411 1 47.8929 10.635 0
 412 1 49.121 11.344 0
 413 1 51.577 8.508 0
 414 1 50.349 9.217 0
 415 1 50.349 10.635 0
 416 1 51.577 11.344 0
 417 1 54.0331 8.508 0
 418 1 52.805 9.217 0
 419 1 52.805 10.635 0
 420 1 54.0331 11.344 0
 421 1 56.4891 8.508 0
 422 1 55.2611 9.217 0
 423 1 55.2611 10.635 0
 424 1 56.4891 11.344 0
 425 1 58.9452 8.508 0
 426 1 57.7171 9.217 0
 427 1 57.7171 10.635 0
 428 1 58.9452 11.344 0
 429 1 61.4012 8.508 0
 430 1 60.1732 9.217 0
 431 1 60.1732 10.635 0
 432 1 61.4012 11.344 0
 433 1 63.8573 8.508 0
 434 1 62.6292 9.217 0
 435 1 62.6292 10.635 0
 436 1 63.8573 11.344 0
 437 1 66.3133 8.508 0
 438 1 65.0853 9.217 0
 439 1 65.0853 10.635 0
 440 1 66.3133 11.344 0
 441 1 68.7693 8.508 0
 442 1 67.5413 9.217 0
 443 1 67.5413 10.635 0
 444 1 68.7693 11.344 0
 445 1 71.2254 8.508 0
 446 1 69.9974 9.217 0
 447 1 69.9974 10.635 0
 448 1 71.2254 11.344 0
 449 1 73.6814 8.508 0
 450 1 72.4534 9.217 0
 451 1 72.4534 10.635 0
 452 1 73.6814 11.344 0
 453 1 76.1375 8.508 0
 454 1 74.9095 9.217 0
 455 1 74.9095 10.635 0
 456 1 76.1375 11.344 0
 457 1 78.5935 8.508 0
 458 1 77.3655 9.217 0
 459 1 77.3655 10.635 0
 460 1 78.5935 11.344 0
 461 1 81.0496 8.508 0
 462 1 79.8216 9.217 0
 463 1 79.8216 10.635 0
 464 1 81.0496 11.344 0
 465 1 83.5056 8.508 0
 466 1 82.2776 9.217 0
 467 1 82.2776 10.635 0
 468 1 83.5056 11.344 0
 469 1 85.9617 8.508 0
 470 1 84.7337 9.217 0
 471 1 84.7337 10.635 0
 472 1 85.9617 11.344 0
 473 1 88.4177 8.508 0
 474 1 87.1897 9.217 0
 475 1 87.1897 10.635 0
 476 1 88.4177 11.344 0
 477 1 90.8738 8.508 0
 478 1 89.6458 9.217 0
 479 1 89.6458 10.635 0
 480 1 90.8738 11.344 0
 481 1 93.3298 8.508 0
 482 1 92.1018 9.217 0
 483 1 92.1018 10.635 0
 484 1 93.3298 11.344 0
 485 1 95.7859 8.508 0
 486 1 94.5578 9.217 0
 487 1 94.5578 10.635 0
 488 1 95.7859 11.344 0
 489 1 98.2419 8.508 0
 490 1 97.0139 9.217 0
 491 1 97.0139 10.635 0
 492 1 98.2419 11.344 0
 493 1 0 12.762 0
 494 1 -1.22802 13.471 0
 495 1 -1.22802 14.889 0
 496 1 0 15.598 0
 497 1 2.45605 12.762 0
 498 1 1.22802 13.471 0
 499 1 1.22802 14.889 0
 500 1 2.45605 15.598 0
 501 1 4.9121 12.762 0
 502 1 3.68407 13.471 0
 503 1 3.68407 14.889 0
 504 1 4.9121 15.598 0
 505 1 7.36814 12.762 0
 506 1 6.14012 13.471 0
 507 1 6.14012 14.889 0
 508 1 7.36814 15.598 0
 509 1 9.82419 12.762 0
 510 1 8.59617 13.471 0
 511 1 8.59617 14.889 0
 512 1 9.82419 15.598 0
 513 1 12.2802 12.762 0
 514 1 11.0522 13.471 0
 515 1 11.0522 14.889 0
 516 1 12.2802 15.598 0
 517 1 14.7363 12.762 0
 518 1 13.5083 13.471 0
 519 1 13.5083 14.889 0
 520 1 14.7363 15.598 0
 521 1 17.1923 12.762 0
 522 1 15.9643 13.471 0
 523 1 15.9643 14.889 0
 524 1 17.1923 15.598 0
 525 1 19.6484 12.762 0
 526 1 18.4204 13.471 0
 527 1 18.4204 14.889 0
 528 1 19.6484 15.598 0
 529 1 22.1044 12.762 0
 530 1 20.8764 13.471 0
 531 1 20.8764 14.889 0
 532 1 22.1044 15.598 0
 533 1 24.5605 12.762 0
 534 1 23.3325 13.471 0
 535 1 23.3325 14.889 0
 536 1 24.5605 15.598 0
 537 1 27.0165 12.762 0
 538 1 25.7885 13.471 0
 539 1 25.7885 14.889 0
 540 1 27.0165 15.598 0
 541 1 29.4726 12.762 0
 542 1 28.2446 13.471 0
 543 1 28.2446 14.889 0
 544 1 29.4726 15.598 0
 545 1 31.9286 12.762 0
 546 1 30.7006 13.471 0
 547 1 30.7006 14.889 0
 548 1 31.9286 15.598 0
 549 1 34.3847 12.762 0
 550 1 33.1566 13.471 0
 551 1 33.1566 14.889 0
 552 1 34.3847 15.598 0
 553 1 36.8407 12.762 0
 554 1 35.6127 13.471 0
 555 1 35.6127 14.889 0
 556 1 36.8407 15.598 0
 557 1 39.2968 12.762 0
 558 1 38.0687 13.471 0
 559 1 38.0687 14.889 0
 560 1 39.2968 15.598 0
 561 1 41.7528 12.762 0
 562 1 40.5248 13.471 0
 563 1 40.5248 14.889 0
 564 1 41.7528 15.598 0
 565 1 44.2089 12.762 0
 566 1 42.9808 13.471 0
 567 1 42.9808 14.889 0
 568 1 44.2089 15.598 0
 569 1 46.6649 12.762 0
 570 1 45.4369 13.471 0
 571 1 45.4369 14.889 0
 572 1 46.6649 15.598 0
 573 1 49.121 12.762 0
 574 1 47.8929 13.471 0
 575 1 47.8929 14.889 0
 576 1 49.121 15.598 0
 577 1 51.577 12.762 0
 578 1 50.349 13.471 0
 579 1 50.349 14.889 0
 580 1 51.577 15.598 0
 581 1 54.0331 12.762 0
 582 1 52.805 13.471 0
 583 1 52.805 14.889 0
 584 1 54.0331 15.598 0
 585 1 56.4891 12.762 0
 586 1 55.2611 13.471 0
 587 1 55.2611 14.889 0
 588 1 56.4891 15.598 0
 589 1 58.9452 12.762 0
 590 1 57.7171 13.471 0
 591 1 57.7171 14.889 0
 592 1 58.9452 15.598 0
 593 1 61.4012 12.762 0
 594 1 60.1732 13.471 0
 595 1 60.1732 14.889 0
 596 1 61.4012 15.598 0
 597 1 63.8573 12.762 0
 598 1 62.6292 13.471 0
 599 1 62.6292 14.889 0
 600 1 63.8573 15.598 0
 601 1 66.3133 12.762 0
 602 1 65.0853 13.471 0
 603 1 65.0853 14.889 0
 604 1 66.3133 15.598 0
 605 1 68.7693 12.762 0
 606 1 67.5413 13.471 0
 607 1 67.5413 14.889 0
 608 1 68.7693 15.598 0
 609 1 71.2254 12.762 0
 610 1 69.9974 13.471 0
 611 1 69.9974 14.889 0
 612 1 71.2254 15.598 0
 613 1 73.6814 12.762 0
 614 1 72.4534 13.471 0
 615 1 72.4534 14.889 0
 616 1 73.6814 15.598 0
 617 1 76.1375 12.762 0
 618 1 74.9095 13.471 0
 619 1 74.9095 14.889 0
 620 1 76.1375 15.598 0
 621 1 78.5935 12.762 0
 622 1 77.3655 13.471 0
 623 1 77.3655 14.889 0
 624 1 78.5935 15.598 0
 625 1 81.0496 12.762 0
 626 1 79.8216 13.471 0
 627 1 79.8216 14.889 0
 628 1 81.0496 15.598 0
 629 1 83.5056 12.762 0
 630 1 82.2776 13.471 0
 631 1 82.2776 14.889 0
 632 1 83.5056 15.598 0
 633 1 85.9617 12.762 0
 634 1 84.7337 13.471 0
 635 1 84.7337 14.889 0
 636 1 85.9617 15.598 0
 637 1 88.4177 12.762 0
 638 1 87.1897 13.471 0
 639 1 87.1897 14.889 0
 640 1 88.4177 15.598 0
 641 1 90.8738 12.762 0
 642 1 89.6458 13.471 0
 643 1 89.6458 14.889 0
 644 1 90.8738 15.598 0
 645 1 93.3298 12.762 0
 646 1 92.1018 13.471 0
 647 1 92.1018 14.889 0
 648 1 93.3298 15.598 0
 649 1 95.7859 12.762 0
 650 1 94.5578 13.471 0
 651 1 94.5578 14.889 0
 652 1 95.7859 15.598 0
 653 1 98.2419 12.762 0
 654 1 97.0139 13.471 0
 655 1 97.0139 14.889 0
 656 1 98.2419 15.598 0
 657 1 0 17.016 0
 658 1 -1.22802 17.725 0
 659 1 -1.22802 19.143 0
 660 1 0 19.852 0
 661 1 2.45605 17.016 0
 662 1 1.22802 17.725 0
 663 1 1.22802 19.143 0
 664 1 2.45605 19.852 0
 665 1 4.9121 17.016 0
 666 1 3.68407 17.725 0
 667 1 3.68407 19.143 0
 668 1 4.9121 19.852 0
 669 1 7.36814 17.016 0
 670 1 6.14012 17.725 0
 671 1 6.14012 19.143 0
 672 1 7.36814 19.852 0
 673 1 9.82419 17.016 0
 674 1 8.59617 17.725 0
 675 1 8.59617 19.143 0
 676 1 9.82419 19.852 0
 677 1 12.2802 17.016 0
 678 1 11.0522 17.725 0
 679 1 11.0522 19.143 0
 680 1 12.2802 19.852 0
 681 1 14.7363 17.016 0
 682 1 13.5083 17.725 0
 683 1 13.5083 19.143 0
 684 1 14.7363 19.852 0
 685 1 17.1923 17.016 0
 686 1 15.9643 17.725 0
 687 1 15.9643 19.143 0
 688 1 17.1923 19.852 0
 689 1 19.6484 17.016 0
 690 1 18.4204 17.725 0
 691 1 18.4204 19.143 0
 692 1 19.6484 19.852 0
 693 1 22.1044 17.016 0
 694 1 20.8764 17.725 0
 695 1 20.8764 19.143 0
 696 1 22.1044 19.852 0
 697 1 24.5605 17.016 0
 698 1 23.3325 17.725 0
 699 1 23.3325 19.143 0
 700 1 24.5605 19.852 0
 701 1 27.0165 17.016 0
 702 1 25.7885 17.725 0
 703 1 25.7885 19.143 0
 704 1 27.0165 19.852 0
 705 1 29.4726 17.016 0
 706 1 28.2446 17.725 0
 707 1 28.2446 19.143 0
 708 1 29.4726 19.852 0
 709 1 31.9286 17.016 0
 710 1 30.7006 17.725 0
 711 1 30.7006 19.143 0
 712 1 31.9286 19.852 0
 713 1 34.3847 17.016 0
 714 1 33.1566 17.725 0
 715 1 33.1566 19.143 0
 716 1 34.3847 19.852 0
 717 1 36.8407 17.016 0
 718 1 35.6127 17.725 0
 719 1 35.6127 19.143 0
 720 1 36.8407 19.852 0
 721 1 39.2968 17.016 0
 722 1 38.0687 17.725 0
 723 1 38.0687 19.143 0
 724 1 39.2968 19.852 0
 725 1 41.7528 17.016 0
 726 1 40.5248 17.725 0
 727 1 40.5248 19.143 0
 728 1 41.7528 19.852 0
 729 1 44.2089 17.016 0
 730 1 42.9808 17.725 0
 731 1 42.9808 19.143 0
 732 1 44.2089 19.852 0
 733 1 46.6649 17.016 0
 734 1 45.4369 17.725 0
 735 1 45.4369 19.143 0
 736 1 46.6649 19.852 0
 737 1 49.121 17.016 0
 738 1 47.8929 17.725 0
 739 1 47.8929 19.143 0
 740 1 49.121 19.852 0
 741 1 51.577 17.016 0
 742 1 50.349 17.725 0
 743 1 50.349 19.143 0
 744 1 51.577 19.852 0
 745 1 54.0331 17.016 0
 746 1 52.805 17.725 0
 747 1 52.805 19.143 0
 748 1 54.0331 19.852 0
 749 1 56.4891 17.016 0
 750 1 55.2611 17.725 0
 751 1 55.2611 19.143 0
 752 1 56.4891 19.852 0
 753 1 58.9452 17.016 0
 754 1 57.7171 17.725 0
 755 1 57.7171 19.143 0
 756 1 58.9452 19.852 0
 757 1 61.4012 17.016 0
 758 1 60.1732 17.725 0
 759 1 60.1732 19.143 0
 760 1 61.4012 19.852 0
 761 1 63.8573 17.016 0
 762 1 62.6292 17.725 0
 763 1 62.6292 19.143 0
 764 1 63.8573 19.852 0
 765 1 66.3133 17.016 0
 766 1 65.0853 17.725 0
 767 1 65.0853 19.143 0
 768 1 66.3133 19.852 0
 769 1 68.7693 17.016 0
 770 1 67.5413 17.725 0
 771 1 67.5413 19.143 0
 772 1 68.7693 19.852 0
 773 1 71.2254 17.016 0
 774 1 69.9974 17.725 0
 775 1 69.9974 19.143 0
 776 1 71.2254 19.852 0
 777 1 73.6814 17.016 0
 778 1 72.4534 17.725 0
 779 1 72.4534 19.143 0
 780 1 73.6814 19.852 0
 781 1 76.1375 17.016 0
 782 1 74.9095 17.725 0
 783 1 74.9095 19.143 0
 784 1 76.1375 19.852 0
 785 1 78.5935 17.016 0
 786 1 77.3655 17.725 0
 787 1 77.3655 19.143 0
 788 1 78.5935 19.852 0
 789 1 81.0496 17.016 0
 790 1 79.8216 17.725 0
 791 1 79.8216 19.143 0
 792 1 81.0496 19.852 0
 793 1 83.5056 17.016 0
 794 1 82.2776 17.725 0
 795 1 82.2776 19.143 0
 796 1 83.5056 19.852 0
 797 1 85.9617 17.016 0
 798 1 84.7337 17.725 0
 799 1 84.7337 19.143 0
 800 1 85.9617 19.852 0
 801 1 88.4177 17.016 0
 802 1 87.1897 17.725 0
 803 1 87.1897 19.143 0
 804 1 88.4177 19.852 0
 805 1 90.8738 17.016 0
 806 1 89.6458 17.725 0
 807 1 89.6458 19.143 0
 808 1 90.8738 19.852 0
 809 1 93.3298 17.016 0
 810 1 92.1018 17.725 0
 811 1 92.1018 19.143 0
 812 1 93.3298 19.852 0
 813 1 95.7859 17.016 0
 814 1 94.5578 17.725 0
 815 1 94.5578 19.143 0
 816 1 95.7859 19.852 0
 817 1 98.2419 17.016 0
 818 1 97.0139 17.725 0
 819 1 97.0139 19.143 0
 820 1 98.2419 19.852 0
 821 1 0 21.27 0
 822 1 -1.22802 21.979 0
 823 1 -1.22802 23.397 0
 824 1 0 24.106 0
 825 1 2.45605 21.27 0
 826 1 1.22802 21.979 0
 827 1 1.22802 23.397 0
 828 1 2.45605 24.106 0
 829 1 4.9121 21.27 0
 830 1 3.68407 21.979 0
 831 1 3.68407 23.397 0
 832 1 4.9121 24.106 0
 833 1 7.36814 21.27 0
 834 1 6.14012 21.979 0
 835 1 6.14012 23.397 0
 836 1 7.36814 24.106 0
 837 1 9.82419 21.27 0
 838 1 8.59617 21.979 0
 839 1 8.59617 23.397 0
 840 1 9.82419 24.106 0
 841 1 12.2802 21.27 0
 842 1 11.0522 21.979 0
 843 1 11.0522 23.397 0
 844 1 12.2802 24.106 0
 845 1 14.7363 21.27 0
 846 1 13.5083 21.979 0
 847 1 13.5083 23.397 0
 848 1 14.7363 24.106 0
 849 1 17.1923 21.27 0
 850 1 15.9643 21.979 0
 851 1 15.9643 23.397 0
 852 1 17.1923 24.106 0
 853 1 19.6484 21.27 0
 854 1 18.4204 21.979 0
 855 1 18.4204 23.397 0
 856 1 19.6484 24.106 0
 857 1 22.1044 21.27 0
 858 1 20.8764 21.979 0
 859 1 20.8764 23.397 0
 860 1 22.1044 24.106 0
 861 1 24.5605 21.27 0
 862 1 23.3325 21.979 0
 863 1 23.3325 23.397 0
 864 1 24.5605 24.106 0
 865 1 27.0165 21.27 0
 866 1 25.7885 21.979 0
 867 1 25.7885 23.397 0
 868 1 27.0165 24.106 0
 869 1 29.4726 21.27 0
 870 1 28.2446 21.979 0
 871 1 28.2446 23.397 0
 872 1 29.4726 24.106 0
 873 1 31.9286 21.27 0
 874 1 30.7006 21.979 0
 875 1 30.7006 23.397 0
 876 1 31.9286 24.106 0
 877 1 34.3847 21.27 0
 878 1 33.1566 21.979 0
 879 1 33.1566 23.397 0
 880 1 34.3847 24.106 0
 881 1 36.8407 21.27 0
 882 1 35.6127 21.979 0
 883 1 35.6127 23.397 0
 884 1 36.8407 24.106 0
 885 1 39.2968 21.27 0
 886 1 38.0687 21.979 0
 887 1 38.0687 23.397 0
 888 1 39.2968 24.106 0
 889 1 41.7528 21.27 0
 890 1 40.5248 21.979 0
 891 1 40.5248 23.397 0
 892 1 41.7528 24.106 0
 893 1 44.2089 21.27 0
 894 1 42.9808 21.979 0
 895 1 42.9808 23.397 0
 896 1 44.2089 24.106 0
 897 1 46.6649 21.27 0
 898 1 45.4369 21.979 0
 899 1 45.4369 23.397 0
 900 1 46.6649 24.106 0
 901 1 49.121 21.27 0
 902 1 47.8929 21.979 0
 903 1 47.8929 23.397 0
 904 1 49.121 24.106 0
 905 1 51.577 21.27 0
 906 1 50.349 21.979 0
 907 1 50.349 23.397 0
 908 1 51.577 24.106 0
 909 1 54.0331 21.27 0
 910 1 52.805 21.979 0
 911 1 52.805 23.397 0
 912 1 54.0331 24.106 0
 913 1 56.4891 21.27 0
 914 1 55.2611 21.979 0
 915 1 55.2611 23.397 0
 916 1 56.4891 24.106 0
 917 1 58.9452 21.27 0
 918 1 57.7171 21.979 0
 919 1 57.7171 23.397 0
 920 1 58.9452 24.106 0
 921 1 61.4012 21.27 0
 922 1 60.1732 21.979 0
 923 1 60.1732 23.397 0
 924 1 61.4012 24.106 0
 925 1 63.8573 21.27 0
 926 1 62.6292 21.979 0
 927 1 62.6292 23.397 0
 928 1 63.8573 24.106 0
 929 1 66.3133 21.27 0
 930 1 65.0853 21.979 0
 931 1 65.0853 23.397 0
 932 1 66.3133 24.106 0
 933 1 68.7693 21.27 0
 934 1 67.5413 21.979 0
 935 1 67.5413 23.397 0
 936 1 68.7693 24.106 0
 937 1 71.2254 21.27 0
 938 1 69.9974 21.979 0
 939 1 69.9974 23.397 0
 940 1 71.2254 24.106 0
 941 1 73.6814 21.27 0
 942 1 72.4534 21.979 0
 943 1 72.4534 23.397 0
 944 1 73.6814 24.106 0
 945 1 76.1375 21.27 0
 946 1 74.9095 21.979 0
 947 1 74.9095 23.397 0
 948 1 76.1375 24.106 0
 949 1 78.5935 21.27 0
 950 1 77.3655 21.979 0
 951 1 77.3655 23.397 0
 952 1 78.5935 24.106 0
 953 1 81.0496 21.27 0
 954 1 79.8216 21.979 0
 955 1 79.8216 23.397 0
 956 1 81.0496 24.106 0
 957 1 83.5056 21.27 0
 958 1 82.2776 21.979 0
 959 1 82.2776 23.397 0
 960 1 83.5056 24.106 0
 961 1 85.9617 21.27 0
 962 1 84.7337 21.979 0
 963 1 84.7337 23.397 0
 964 1 85.9617 24.106 0
 965 1 88.4177 21.27 0
 966 1 87.1897 21.979 0
 967 1 87.1897 23.397 0
 968 1 88.4177 24.106 0
 969 1 90.8738 21.27 0
 970 1 89.6458 21.979 0
 971 1 89.6458 23.397 0
 972 1 90.8738 24.106 0
 973 1 93.3298 21.27 0
 974 1 92.1018 21.979 0
 975 1 92.1018 23.397 0
 976 1 93.3298 24.106 0
 977 1 95.7859 21.27 0
 978 1 94.5578 21.979 0
 979 1 94.5578 23.397 0
 980 1 95.7859 24.106 0
 981 1 98.2419 21.27 0
 982 1 97.0139 21.979 0
 983 1 97.0139 23.397 0
 984 1 98.2419 24.106 0
 985 1 0 25.524 0
 986 1 -1.22802 26.233 0
 987 1 -1.22802 27.651 0
 988 1 0 28.36 0
 989 1 2.45605 25.524 0
 990 1 1.22802 26.233 0
 991 1 1.22802 27.651 0
 992 1 2.45605 28.36 0
 993 1 4.9121 25.524 0
 994 1 3.68407 26.233 0
 995 1 3.68407 27.651 0
 996 1 4.9121 28.36 0
 997 1 7.36814 25.524 0
 998 1 6.14012 26.233 0
 999 1 6.14012 27.651 0
 1000 1 7.36814 28.36 0
 1001 1 9.82419 25.524 0
 1002 1 8.59617 26.233 0
 1003 1 8.59617 27.651 0
 1004 1 9.82419 28.36 0
 1005 1 12.2802 25.524 0
 1006 1 11.0522 26.233 0
 1007 1 11.0522 27.651 0
 1008 1 12.2802 28.36 0
 1009 1 14.7363 25.524 0
 1010 1 13.5083 26.233 0
 1011 1 13.5083 27.651 0
 1012 1 14.7363 28.36 0
 1013 1 17.1923 25.524 0
 1014 1 15.9643 26.233 0
 1015 1 15.9643 27.651 0
 1016 1 17.1923 28.36 0
 1017 1 19.6484 25.524 0
 1018 1 18.4204 26.233 0
 1019 1 18.4204 27.651 0
 1020 1 19.6484 28.36 0
 1021 1 22.1044 25.524 0
 1022 1 20.8764 26.233 0
 1023 1 20.8764 27.651 0
 1024 1 22.1044 28.36 0
 1025 1 24.5605 25.524 0
 1026 1 23.3325 26.233 0
 1027 1 23.3325 27.651 0
 1028 1 24.5605 28.36 0
 1029 1 27.0165 25.524 0
 1030 1 25.7885 26.233 0
 1031 1 25.7885 27.651 0
 1032 1 27.0165 28.36 0
 1033 1 29.4726 25.524 0
 1034 1 28.2446 26.233 0
 1035 1 28.2446 27.651 0
 1036 1 29.4726 28.36 0
 1037 1 31.9286 25.524 0
 1038 1 30.7006 26.233 0
 1039 1 30.7006 27.651 0
 1040 1 31.9286 28.36 0
 1041 1 34.3847 25.524 0
 1042 1 33.1566 26.233 0
 1043 1 33.1566 27.651 0
 1044 1 34.3847 28.36 0
 1045 1 36.8407 25.524 0
 1046 1 35.6127 26.233 0
 1047 1 35.6127 27.651 0
 1048 1 36.8407 28.36 0
 1049 1 39.2968 25.524 0
 1050 1 38.0687 26.233 0
 1051 1 38.0687 27.651 0
 1052 1 39.2968 28.36 0
 1053 1 41.7528 25.524 0
 1054 1 40.5248 26.233 0
 1055 1 40.5248 27.651 0
 1056 1 41.7528 28.36 0
 1057 1 44.2089 25.524 0
 1058 1 42.9808 26.233 0
 1059 1 42.9808 27.651 0
 1060 1 44.2089 28.36 0
 1061 1 46.6649 25.524 0
 1062 1 45.4369 26.233 0
 1063 1 45.4369 27.651 0
 1064 1 46.6649 28.36 0
 1065 1 49.121 25.524 0
 1066 1 47.8929 26.233 0
 1067 1 47.8929 27.651 0
 1068 1 49.121 28.36 0
 1069 1 51.577 25.524 0
 1070 1 50.349 26.233 0
 1071 1 50.349 27.651 0
 1072 1 51.577 28.36 0
 1073 1 54.0331 25.524 0
 1074 1 52.805 26.233 0
 1075 1 52.805 27.651 0
 1076 1 54.0331 28.36 0
 1077 1 56.4891 25.524 0
 1078 1 55.2611 26.233 0
 1079 1 55.2611 27.651 0
 1080 1 56.4891 28.36 0
 1081 1 58.9452 25.524 0
 1082 1 57.7171 26.233 0
 1083 1 57.7171 27.651 0
 1084 1 58.9452 28.36 0
 1085 1 61.4012 25.524 0
 1086 1 60.1732 26.233 0
 1087 1 60.1732 27.651 0
 1088 1 61.4012 28.36 0
 1089 1 63.8573 25.524 0
 1090 1 62.6292 26.233 0
 1091 1 62.6292 27.651 0
 1092 1 63.8573 28.36 0
 1093 1 66.3133 25.524 0
 1094 1 65.0853 26.233 0
 1095 1 65.0853 27.651 0
 1096 1 66.3133 28.36 0
 1097 1 68.7693 25.524 0
 1098 1 67.5413 26.233 0
 1099 1 67.5413 27.651 0
 1100 1 68.7693 28.36 0
 1101 1 71.2254 25.524 0
 1102 1 69.9974 26.233 0
 1103 1 69.9974 27.651 0
 1104 1 71.2254 28.36 0
 1105 1 73.6814 25.524 0
 1106 1 72.4534 26.233 0
 1107 1 72.4534 27.651 0
 1108 1 73.6814 28.36 0
 1109 1 76.1375 25.524 0
 1110 1 74.9095 26.233 0
 1111 1 74.9095 27.651 0
 1112 1 76.1375 28.36 0
 1113 1 78.5935 25.524 0
 1114 1 77.3655 26.233 0
 1115 1 77.3655 27.651 0
 1116 1 78.5935 28.36 0
 1117 1 81.0496 25.524 0
 1118 1 79.8216 26.233 0
 1119 1 79.8216 27.651 0
 1120 1 81.0496 28.36 0
 1121 1 83.5056 25.524 0
 1122 1 82.2776 26.233 0
 1123 1 82.2776 27.651 0
 1124 1 83.5056 28.36 0
 1125 1 85.9617 25.524 0
 1126 1 84.7337 26.233 0
 1127 1 84.7337 27.651 0
 1128 1 85.9617 28.36 0
 1129 1 88.4177 25.524 0
 1130 1 87.1897 26.233 0
 1131 1 87.1897 27.651 0
 1132 1 88.4177 28.36 0
 1133 1 90.8738 25.524 0
 1134 1 89.6458 26.233 0
 1135 1 89.6458 27.651 0
 1136 1 90.8738 28.36 0
 1137 1 93.3298 25.524 0
 1138 1 92.1018 26.233 0
 1139 1 92.1018 27.651 0
 1140 1 93.3298 28.36 0
 1141 1 95.7859 25.524 0
 1142 1 94.5578 26.233 0
 1143 1 94.5578 27.651 0
 1144 1 95.7859 28.36 0
 1145 1 98.2419 25.524 0
 1146 1 97.0139 26.233 0
 1147 1 97.0139 27.651 0
 1148 1 98.2419 28.36 0
 1149 1 0 29.778 0
 1150 1 -1.22802 30.487 0
 1151 1 -1.22802 31.905 0
 1152 1 0 32.614 0
 1153 1 2.45605 29.778 0
 1154 1 1.22802 30.487 0
 1155 1 1.22802 31.905 0
 1156 1 2.45605 32.614 0
 1157 1 4.9121 29.778 0
 1158 1 3.68407 30.487 0
 1159 1 3.68407 31.905 0
 1160 1 4.9121 32.614 0
 1161 1 7.36814 29.778 0
 1162 1 6.14012 30.487 0
 1163 1 6.14012 31.905 0
 1164 1 7.36814 32.614 0
 1165 1 9.82419 29.778 0
 1166 1 8.59617 30.487 0
 1167 1 8.59617 31.905 0
 1168 1 9.82419 32.614 0
 1169 1 12.2802 29.778 0
 1170 1 11.0522 30.487 0
 1171 1 11.0522 31.905 0
 1172 1 12.2802 32.614 0
 1173 1 14.7363 29.778 0
 1174 1 13.5083 30.487 0
 1175 1 13.5083 31.905 0
 1176 1 14.7363 32.614 0
 1177 1 17.1923 29.778 0
 1178 1 15.9643 30.487 0
 1179 1 15.9643 31.905 0
 1180 1 17.1923 32.614 0
 1181 1 19.6484 29.778 0
 1182 1 18.4204 30.487 0
 1183 1 18.4204 31.905 0
 1184 1 19.6484 32.614 0
 1185 1 22.1044 29.778 0
 1186 1 20.8764 30.487 0
 1187 1 20.8764 31.905 0
 1188 1 22.1044 32.614 0
 1189 1 24.5605 29.778 0
 1190 1 23.3325 30.487 0
 1191 1 23.3325 31.905 0
 1192 1 24.5605 32.614 0
 1193 1 27.0165 29.778 0
 1194 1 25.7885 30.487 0
 1195 1 25.7885 31.905 0
 1196 1 27.0165 32.614 0
 1197 1 29.4726 29.778 0
 1198 1 28.2446 30.487 0
 1199 1 28.2446 31.905 0
 1200 1 29.4726 32.614 0
 1201 1 31.9286 29.778 0
 1202 1 30.7006 30.487 0
 1203 1 30.7006 31.905 0
 1204 1 31.9286 32.614 0
 1205 1 34.3847 29.778 0
 1206 1 33.1566 30.487 0
 1207 1 33.1566 31.905 0
 1208 1 34.3847 32.614 0
 1209 1 36.8407 29.778 0
 1210 1 35.6127 30.487 0
 1211 1 35.6127 31.905 0
 1212 1 36.8407 32.614 0
 1213 1 39.2968 29.778 0
 1214 1 38.0687 30.487 0
 1215 1 38.0687 31.905 0
 1216 1 39.2968 32.614 0
 1217 1 41.7528 29.778 0
 1218 1 40.5248 30.487 0
 1219 1 40.5248 31.905 0
 1220 1 41.7528 32.614 0
 1221 1 44.2089 29.778 0
 1222 1 42.9808 30.487 0
 1223 1 42.9808 31.905 0
 1224 1 44.2089 32.614 0
 1225 1 46.6649 29.778 0
 1226 1 45.4369 30.487 0
 1227 1 45.4369 31.905 0
 1228 1 46.6649 32.614 0
 1229 1 49.121 29.778 0
 1230 1 47.8929 30.487 0
 1231 1 47.8929 31.905 0
 1232 1 49.121 32.614 0
 1233 1 51.577 29.778 0
 1234 1 50.349 30.487 0
 1235 1 50.349 31.905 0
 1236 1 51.577 32.614 0
 1237 1 54.0331 29.778 0
 1238 1 52.805 30.487 0
 1239 1 52.805 31.905 0
 1240 1 54.0331 32.614 0
 1241 1 56.4891 29.778 0
 1242 1 55.2611 30.487 0
 1243 1 55.2611 31.905 0
 1244 1 56.4891 32.614 0
 1245 1 58.9452 29.778 0
 1246 1 57.7171 30.487 0
 1247 1 57.7171 31.905 0
 1248 1 58.9452 32.614 0
 1249 1 61.4012 29.778 0
 1250 1 60.1732 30.487 0
 1251 1 60.1732 31.905 0
 1252 1 61.4012 32.614 0
 1253 1 63.8573 29.778 0
 1254 1 62.6292 30.487 0
 1255 1 62.6292 31.905 0
 1256 1 63.8573 32.614 0
 1257 1 66.3133 29.778 0
 1258 1 65.0853 30.487 0
 1259 1 65.0853 31.905 0
 1260 1 66.3133 32.614 0
 1261 1 68.7693 29.778 0
 1262 1 67.5413 30.487 0
 1263 1 67.5413 31.905 0
 1264 1 68.7693 32.614 0
 1265 1 71.2254 29.778 0
 1266 1 69.9974 30.487 0
 1267 1 69.9974 31.905 0
 1268 1 71.2254 32.614 0
 1269 1 73.6814 29.778 0
 1270 1 72.4534 30.487 0
 1271 1 72.4534 31.905 0
 1272 1 73.6814 32.614 0
 1273 1 76.1375 29.778 0